# vtk DataFile Version 3.0
Created by write_to_vtk2d
ASCII
DATASET STRUCTURED_POINTS
DIMENSIONS 100 100 1
SPACING 1.000000 1.000000 0.0
ORIGIN 0.000000 0.000000 0.0
POINT_DATA 10000
SCALARS p float 1
LOOKUP_TABLE p_table
0.000000
0.000000
0.049874
0.069041
0.085250
0.093208
0.095853
0.094955
0.087454
0.069623
0.053198
0.045541
0.000000
0.000000
0.000000
0.000000
-0.016034
-0.001796
-0.005213
-0.015070
-0.025963
-0.034801
-0.039278
-0.039930
-0.037589
-0.035959
-0.037453
-0.035432
-0.029712
-0.027890
-0.024935
-0.020059
-0.017345
-0.014529
-0.013981
-0.006633
-0.010915
-0.009577
-0.010088
-0.015656
-0.020281
-0.026868
-0.032604
-0.037869
-0.045075
-0.051173
-0.058961
-0.055661
0.000000
0.000000
0.000000
0.000000
0.000000
0.001591
0.008929
0.023645
0.043117
0.061801
0.075285
0.083059
0.086890
0.086672
0.081356
0.061542
0.026148
-0.014377
-0.043351
-0.050915
-0.043729
-0.027272
-0.011838
-0.004543
-0.004704
-0.007820
-0.011362
-0.014171
-0.016440
-0.018519
-0.020378
-0.022074
-0.022778
-0.023908
-0.025312
-0.027703
-0.029888
-0.031596
-0.033192
-0.034858
-0.035471
-0.045190
0.000000
0.000000
0.000000
0.000000
0.000000
0.000000
0.000000
0.000000
0.000000
0.000000
0.000000
0.000000
0.144028
0.144042
0.145748
0.125723
0.076189
0.009239
-0.046455
-0.064320
-0.066697
-0.052954
-0.026840
-0.007261
-0.002373
-0.005407
-0.009326
-0.010901
-0.010896
-0.011893
0.000000
0.000000
0.000000
0.000000
-0.030742
-0.025392
-0.022370
-0.018034
-0.015895
-0.013953
-0.014077
-0.009560
-0.012366
-0.011704
-0.013587
-0.017383
-0.021697
-0.028157
-0.032491
-0.033901
-0.034047
-0.037610
-0.041489
-0.037435
-0.028397
-0.028740
-0.025757
-0.006920
0.000000
0.001695
0.010049
0.027200
0.049972
0.071162
0.085080
0.091233
0.092482
0.090742
0.081994
0.056532
0.014801
-0.030436
-0.059922
-0.065664
-0.053238
-0.030319
-0.010280
-0.001297
-0.001325
-0.004783
-0.009024
-0.012456
-0.015170
-0.017550
-0.019514
-0.020937
-0.021738
-0.022698
-0.023744
-0.025852
-0.028109
-0.030081
-0.031800
-0.033616
-0.034852
-0.042248
0.000000
0.000000
0.000000
0.000000
0.000000
0.000000
0.000000
0.000000
0.000000
0.000000
0.000000
0.000000
0.000000
0.001525
0.010288
0.029223
0.099224
0.008562
-0.051813
-0.072322
-0.078123
-0.065996
-0.037635
-0.019009
-0.012832
-0.019090
-0.027098
-0.031635
-0.029981
-0.024978
-0.021145
-0.022432
-0.023802
-0.022397
-0.018887
-0.017799
-0.014449
-0.009802
-0.006214
-0.003863
-0.003526
0.001704
0.000000
0.000000
0.000000
0.000000
-0.032971
-0.031304
-0.035606
-0.036027
-0.036808
-0.038702
-0.041266
-0.035384
-0.030128
-0.029293
-0.020099
0.004714
0.040442
0.071357
0.091490
0.075764
0.054888
0.078995
0.094394
0.099763
0.098897
0.095696
0.083387
0.053788
0.007734
-0.041389
-0.072641
-0.078008
-0.063327
-0.036039
-0.011750
-0.000175
0.000734
-0.002414
-0.006833
-0.010646
-0.013696
-0.016310
-0.018558
-0.020307
-0.021453
-0.022472
-0.023436
-0.024724
-0.026401
-0.028360
-0.030095
-0.031944
-0.033368
-0.039404
0.000000
0.000000
0.000000
0.000000
0.000000
0.000000
0.000000
0.000000
0.000000
0.000000
0.000000
0.000000
0.000000
0.001150
0.009613
0.029388
0.057656
0.085232
0.103009
0.108495
-0.054699
-0.043836
-0.031469
-0.015394
-0.011987
-0.017620
-0.025277
-0.031161
-0.027285
-0.021221
-0.018645
-0.022599
-0.025582
-0.026167
-0.024253
-0.023224
-0.019230
-0.015066
-0.013702
-0.011333
-0.011256
-0.007405
-0.010904
-0.010521
-0.014553
-0.018599
-0.021368
-0.026901
-0.031618
-0.032999
-0.035026
-0.040080
-0.043133
-0.057658
0.000000
0.000000
0.000000
0.000000
0.061460
0.099260
0.123785
0.129543
0.122724
0.113189
0.107287
0.104024
0.106637
0.101444
0.085817
0.053308
0.004283
-0.048055
-0.082571
-0.089617
-0.074749
-0.045040
-0.016653
-0.001238
0.001282
-0.000837
-0.004601
-0.008343
-0.011604
-0.014508
-0.016967
-0.018962
-0.020795
-0.021949
-0.023119
-0.023836
-0.024822
-0.026634
-0.028515
-0.030493
-0.032213
-0.036999
0.000000
0.000000
0.000000
0.000000
0.000000
0.000000
0.000000
0.000000
0.000000
0.000000
0.000000
0.000000
0.000000
0.000688
0.008183
0.027833
0.057993
0.089269
0.110569
0.117643
0.115563
0.108076
0.089956
0.055371
-0.030389
-0.003328
-0.005750
-0.009154
-0.010696
-0.010838
-0.016751
-0.017560
-0.023177
-0.024043
-0.027869
-0.028270
-0.023231
-0.017573
-0.014917
-0.014197
-0.014364
-0.012372
-0.014376
-0.014632
-0.018381
-0.020661
-0.021309
-0.023990
-0.028363
-0.030451
-0.032961
-0.035501
-0.036471
-0.036385
-0.027498
-0.020223
-0.007442
0.016358
0.049284
0.089657
0.121844
0.134284
0.131053
0.119183
0.101408
0.106301
0.000000
0.000000
0.000000
0.000000
0.004336
-0.050741
-0.089626
-0.099483
-0.086242
-0.056301
-0.024686
-0.004870
0.000801
0.000055
-0.002771
-0.005951
-0.009085
-0.012231
-0.015116
-0.017636
-0.020359
-0.022206
-0.022818
-0.022595
-0.022996
-0.024551
-0.026320
-0.028267
-0.029766
-0.034827
0.000000
0.000000
0.000000
0.000000
0.000000
0.000000
0.000000
0.000000
0.000000
0.000000
0.000000
0.000000
0.000000
0.000273
0.006253
0.024692
0.055755
0.090610
0.116672
0.126813
0.124892
0.115924
0.095956
0.060053
0.007880
-0.049750
-0.092902
-0.105718
-0.071509
-0.044482
-0.019379
-0.008128
0.000199
-0.004795
-0.011579
-0.015790
-0.019686
-0.018382
-0.016466
-0.015379
-0.015420
-0.012198
-0.014462
-0.014652
-0.018014
-0.018969
-0.018705
-0.019419
-0.022099
-0.024576
-0.028242
-0.031687
-0.033431
-0.034420
-0.029827
-0.022089
-0.009079
0.013619
0.043722
0.085955
0.125816
0.149264
0.157694
0.164940
0.166130
0.144719
0.084096
0.007735
-0.061973
-0.094159
-0.085069
-0.066163
-0.062857
-0.052832
-0.096952
-0.068361
-0.035192
-0.011243
-0.001021
-0.000087
-0.001662
-0.003830
-0.006319
-0.009287
-0.012476
-0.015584
-0.018996
-0.021405
-0.022330
-0.022577
-0.022970
-0.023533
-0.024432
-0.025730
-0.026823
-0.032924
0.000000
0.000000
0.000000
0.000000
0.000000
0.000000
0.000000
0.000000
0.000000
0.000000
0.000000
0.000000
0.000000
0.000000
0.004154
0.020396
0.051009
0.088864
0.120551
0.135206
0.134758
0.125479
0.104108
0.067403
0.014657
-0.044883
-0.092227
-0.111545
-0.106557
-0.081523
-0.047818
-0.020358
-0.004272
-0.030016
-0.030910
-0.030848
0.000000
0.000000
0.000000
0.000000
-0.015203
-0.011718
-0.016277
-0.017153
-0.021120
-0.022256
-0.021923
-0.022243
-0.022805
-0.023920
-0.026744
-0.030512
-0.034155
-0.036583
-0.032857
-0.024904
-0.011897
0.008581
0.036084
0.077628
0.122102
0.153177
0.168810
0.186327
0.195268
0.169157
0.107833
0.024668
-0.056395
-0.102757
-0.102536
-0.097752
-0.088954
-0.070803
-0.046195
-0.030329
-0.023206
-0.020530
-0.005784
-0.001829
-0.002131
-0.003290
-0.004676
-0.006801
-0.009641
-0.012730
-0.016322
-0.019283
-0.021129
-0.021838
-0.022082
-0.022450
-0.022926
-0.023812
-0.024363
-0.030792
0.000000
0.000000
0.000000
0.000000
0.000000
0.000000
0.000000
0.000000
0.000000
0.000000
0.000000
0.000000
0.000000
0.000000
0.002229
0.015324
0.044097
0.083793
0.121056
0.142589
0.145151
0.136514
0.114642
0.077387
0.024788
-0.035723
-0.087439
-0.114083
-0.113950
-0.094034
-0.062253
-0.032383
-0.013381
-0.005378
-0.003615
-0.003599
-0.026621
-0.027854
-0.029985
-0.030670
-0.029550
-0.021914
-0.020221
-0.014759
-0.014496
-0.011813
-0.009250
-0.011004
0.000000
0.000000
0.000000
0.000000
-0.024962
-0.024050
-0.022570
-0.018140
-0.008173
0.006913
0.029361
0.068637
0.116751
0.155564
0.175300
0.195196
0.207303
0.192316
0.131915
0.049102
-0.036365
-0.097798
-0.107275
-0.109391
-0.111424
-0.099109
-0.070785
-0.047939
-0.034289
-0.024070
-0.013405
-0.003391
-0.001631
-0.008872
-0.004043
-0.005001
-0.006996
-0.009690
-0.013118
-0.016080
-0.018694
-0.020585
-0.021605
-0.021900
-0.022020
-0.022471
-0.022358
-0.027923
0.000000
0.000000
0.000000
0.000000
0.000000
0.000000
0.000000
0.000000
0.000000
0.000000
0.000000
0.000000
0.000000
0.000000
0.000818
0.010194
0.035449
0.075182
0.117535
0.146962
0.154833
0.148795
0.127461
0.090324
0.038337
-0.022543
-0.078243
-0.112045
-0.118924
-0.106023
-0.077807
-0.046846
-0.023859
-0.011501
-0.006599
-0.004913
-0.004245
-0.004371
-0.005176
-0.007026
-0.014631
-0.009384
-0.013177
-0.013361
-0.016543
-0.019151
-0.020361
-0.021757
-0.019203
-0.018205
-0.018878
-0.020634
-0.023421
-0.024349
-0.022210
-0.018433
-0.012579
-0.005329
0.007346
0.024627
0.000000
0.000000
0.000000
0.000000
0.208161
0.201228
0.151281
0.073377
-0.013105
-0.084492
-0.109658
-0.111544
-0.115580
-0.115200
-0.093691
-0.068985
-0.050779
-0.036825
-0.022457
-0.007085
0.002194
-0.002323
-0.008704
-0.011059
-0.009457
-0.007566
-0.009891
-0.012909
-0.015886
-0.018317
-0.019879
-0.020528
-0.020805
-0.021200
-0.020814
-0.025738
0.000000
0.000000
0.000000
0.000000
0.000000
0.000000
0.000000
0.000000
0.000000
0.000000
0.000000
0.000000
0.000000
0.000000
0.000042
0.005667
0.025973
0.063452
0.109139
0.146819
0.164359
0.161471
0.142523
0.106588
0.055397
-0.005589
-0.064830
-0.106561
-0.120146
-0.115394
-0.093089
-0.063336
-0.037311
-0.020367
-0.011672
-0.007589
-0.005438
-0.004369
-0.004343
-0.005336
-0.007338
-0.009808
-0.012695
-0.015147
-0.018202
-0.017607
-0.018552
-0.020304
-0.020334
-0.019621
-0.022388
-0.027252
-0.031641
-0.032191
-0.031682
-0.028435
-0.021436
-0.011641
0.007132
0.038333
0.085807
0.139262
0.177888
0.189185
0.185768
0.167642
0.135233
0.078818
0.008478
-0.045735
-0.066352
-0.060567
0.000000
0.000000
0.000000
0.000000
-0.068447
-0.041320
-0.027828
-0.013327
-0.001042
-0.000948
-0.008752
-0.015592
-0.019231
-0.017564
-0.013694
-0.014207
-0.012642
-0.011399
-0.017180
-0.018399
-0.019085
-0.019626
-0.019328
-0.024022
0.000000
0.000000
0.000000
0.000000
0.000000
0.000000
0.000000
0.000000
0.000000
0.000000
0.000000
0.000000
0.000000
0.000000
0.000000
0.002351
0.016803
0.049541
0.096072
0.141275
0.168948
0.173130
0.159347
0.126009
0.075775
0.014668
-0.047273
-0.095992
-0.120195
-0.121281
-0.106698
-0.080782
-0.053519
-0.032468
-0.019420
-0.012115
-0.007894
-0.005435
-0.004338
-0.004551
-0.005520
-0.007327
-0.009953
-0.012454
-0.014497
-0.015979
-0.017147
-0.018021
-0.027992
-0.022419
-0.019423
-0.018617
-0.018398
-0.017894
-0.016147
-0.014434
-0.013590
-0.011183
0.002026
0.027496
0.070081
0.125464
0.173593
0.197974
0.211273
0.220901
0.207913
0.146398
0.060025
-0.026649
-0.091895
-0.109797
-0.108605
-0.108360
-0.104650
-0.092186
-0.071206
-0.051530
-0.034061
-0.018406
-0.004448
0.001775
-0.006795
-0.009626
0.000000
0.000000
0.000000
0.000000
-0.027291
-0.024375
-0.023701
-0.018716
-0.021803
-0.023535
-0.017486
-0.021742
0.000000
0.000000
0.000000
0.000000
0.000000
0.000000
0.000000
0.000000
0.000000
0.000000
0.000000
0.000000
0.000000
0.000000
0.000000
0.000506
0.009072
0.034965
0.078848
0.129203
0.167749
0.182303
0.175759
0.147866
0.099940
0.039144
-0.024691
-0.079230
-0.113062
-0.121980
-0.116465
-0.097130
-0.071637
-0.048120
-0.030726
-0.019567
-0.012647
-0.008321
-0.005615
-0.004422
-0.004458
-0.005397
-0.007339
-0.009503
-0.011768
-0.013480
-0.014918
-0.015913
-0.015537
-0.019747
0.000000
0.000000
-0.018823
-0.017581
-0.019913
-0.018756
-0.017196
-0.015656
-0.009204
0.011828
0.048067
0.100108
0.155344
0.192864
0.206258
0.216192
0.218675
0.181533
0.105132
0.017697
-0.058966
-0.105927
-0.106140
-0.104637
-0.102394
-0.099869
-0.094804
-0.079218
-0.059319
-0.038974
-0.019510
-0.004199
-0.000601
-0.008934
-0.015879
-0.021079
-0.022952
-0.019799
-0.015759
-0.013999
-0.012636
-0.008603
-0.008237
-0.011351
-0.011809
-0.013142
0.000000
0.000000
0.000000
0.000000
0.000000
0.000000
0.000000
0.000000
0.000000
0.000000
0.000000
0.000000
0.000000
0.000000
0.000000
0.000000
0.003638
0.021491
0.059142
0.110637
0.159256
0.186615
0.189259
0.170168
0.127701
0.068997
0.004039
-0.055927
-0.099690
-0.120443
-0.121606
-0.110352
-0.090012
-0.066656
-0.045912
-0.030552
-0.020011
-0.012845
-0.008014
-0.005268
-0.004232
-0.004281
-0.005291
-0.006916
-0.009109
-0.011107
-0.012715
-0.013769
-0.013710
-0.018116
0.000000
0.000000
0.000000
0.000000
0.000000
0.000000
0.000000
0.000000
0.000000
0.004590
0.029111
0.072159
0.126877
0.176713
0.202182
0.207769
0.212559
0.205319
0.147647
0.066210
-0.014748
-0.079308
-0.105508
-0.102139
-0.097918
-0.093429
-0.090058
-0.088138
-0.074650
-0.055211
-0.034254
-0.015255
-0.002496
-0.004010
-0.012607
-0.016653
-0.017722
-0.015067
-0.012437
-0.014412
-0.017227
-0.013993
-0.016923
-0.019568
-0.019199
-0.017564
-0.015961
-0.014649
-0.014570
-0.016287
-0.016177
-0.019981
0.000000
0.000000
0.000000
0.000000
0.000000
0.000000
0.000000
0.000000
0.000000
0.000000
0.000766
0.010766
0.039414
0.087083
0.141499
0.182854
0.197033
0.189910
0.157749
0.103960
0.039109
-0.025518
-0.078514
-0.110809
-0.120287
-0.118599
-0.106116
-0.086559
-0.065540
-0.047014
-0.032239
-0.021000
-0.012716
-0.007295
-0.004545
-0.003501
-0.003516
-0.004367
-0.006236
-0.008310
-0.010196
-0.011600
-0.012375
-0.016974
0.000000
0.000000
0.000000
0.000000
0.000000
0.000000
0.000000
0.000000
0.000000
0.000000
0.009322
0.045976
0.091860
0.138874
0.160962
0.161448
0.000000
0.000000
0.000000
0.000000
0.049476
-0.044446
-0.094209
-0.104793
-0.100271
-0.092277
-0.084895
-0.080093
-0.075156
-0.065545
-0.048377
-0.029709
-0.013903
-0.004164
-0.007425
-0.015146
-0.017672
-0.017556
-0.013649
-0.009760
-0.013125
-0.013286
-0.017649
-0.020367
-0.020928
-0.020177
-0.018591
-0.016757
-0.015999
-0.016659
-0.014959
-0.012478
-0.012029
-0.011440
-0.008485
-0.001688
0.000000
0.000000
0.000000
0.000000
0.000000
0.000000
0.000000
0.003813
0.022272
0.061490
0.116029
0.168357
0.199126
0.204223
0.185213
0.140813
0.078998
0.012188
-0.047708
-0.091382
-0.114514
-0.120030
-0.115422
-0.103444
-0.086328
-0.067988
-0.050675
-0.035587
-0.023309
-0.014198
-0.008040
-0.004229
-0.002685
-0.002393
-0.003421
-0.005288
-0.007354
-0.009344
-0.011001
-0.016151
0.000000
0.000000
0.000000
0.000000
0.000000
0.000000
0.000000
0.000000
0.000000
0.000000
0.000000
0.000000
0.000000
0.000000
0.172899
0.202584
0.206780
0.205938
0.196975
0.153275
0.081060
0.007420
-0.052179
-0.091226
-0.093290
-0.079191
-0.053860
-0.032900
0.000000
0.000000
0.000000
0.000000
-0.030173
-0.013037
-0.007537
-0.010366
-0.018691
-0.021975
-0.024555
-0.023577
-0.021930
-0.022293
-0.023558
-0.024246
-0.023982
-0.022721
-0.021109
-0.019317
-0.019823
-0.020881
-0.020760
-0.020474
-0.018805
-0.016744
-0.012258
-0.015004
-0.008909
0.003431
0.009210
0.024866
0.000000
0.000000
0.000000
0.000596
0.009763
0.037544
0.085732
0.143061
0.189758
0.211418
0.206260
0.174821
0.121314
0.056493
-0.007516
-0.060529
-0.096273
-0.113556
-0.117439
-0.113424
-0.103387
-0.089466
-0.073094
-0.056487
-0.041546
-0.028803
-0.018394
-0.010386
-0.005264
-0.002656
-0.002429
-0.003578
-0.005224
-0.007595
-0.009649
-0.016114
0.000000
0.000000
0.000000
0.000000
0.000000
0.000000
0.000000
0.000000
0.000000
0.000000
0.000000
0.000000
0.000000
0.000000
0.000000
0.000000
0.000000
0.000000
0.207564
0.186076
0.139855
0.073528
0.009713
-0.043452
-0.082913
-0.090452
-0.084581
-0.073947
-0.069009
-0.062121
-0.053168
-0.047595
-0.040544
-0.031055
-0.022910
-0.017847
-0.016695
-0.021675
-0.022380
-0.017389
0.000000
0.000000
0.000000
0.000000
-0.018059
-0.017778
-0.018434
-0.019179
-0.020653
-0.023633
-0.025125
-0.024974
-0.024858
-0.023917
-0.020594
-0.019554
-0.009777
0.001078
0.008081
0.010041
0.010106
0.011593
0.015005
0.041120
0.002673
0.018575
0.055296
0.109723
0.166320
0.205645
0.215966
0.202264
0.163284
0.105551
0.040966
-0.018362
-0.064654
-0.094955
-0.110345
-0.114781
-0.112796
-0.105688
-0.094212
-0.080336
-0.065790
-0.051299
-0.037741
-0.025956
-0.016766
-0.010275
-0.006741
-0.005538
-0.005930
-0.008010
-0.010127
-0.017954
0.000000
0.000000
0.000000
0.000000
0.000000
0.000000
0.000000
0.000000
0.000000
0.000000
0.000000
0.000000
0.000000
0.000000
0.000000
0.000000
0.000000
0.000000
0.000109
0.006463
0.029522
0.073720
0.085734
-0.002573
-0.046004
-0.078592
-0.080826
-0.074130
-0.066656
-0.059869
-0.053154
-0.044515
-0.038681
-0.038892
-0.034625
-0.028980
-0.023612
-0.021757
-0.026796
-0.030716
-0.033777
-0.032977
-0.036788
-0.035208
-0.033411
-0.031881
-0.029905
-0.026414
-0.022538
-0.020098
-0.018737
-0.019551
0.000000
0.000000
0.000000
0.000000
0.000000
0.000000
0.000000
0.000000
0.000061
0.000217
0.000765
0.010979
0.048393
0.098194
0.136380
0.145316
0.131604
0.184596
0.213929
0.217006
0.197457
0.152731
0.093291
0.032104
-0.020954
-0.061218
-0.088122
-0.103743
-0.109864
-0.110119
-0.106490
-0.099276
-0.089007
-0.076555
-0.063192
-0.050011
-0.038105
-0.027987
-0.020480
-0.015767
-0.013495
-0.013509
-0.014454
-0.020905
0.000000
0.000000
0.000000
0.000000
0.000000
0.000000
0.000000
0.000000
0.000000
0.000000
0.000000
0.000000
0.000000
0.000000
0.000000
0.000000
0.000000
0.000000
0.000000
0.001030
0.011752
0.041396
0.091113
0.149549
0.197135
0.219776
0.020257
-0.040177
-0.061832
-0.058129
-0.056653
-0.049967
-0.037931
-0.032783
-0.031855
-0.032266
-0.030113
-0.026604
-0.025192
-0.029752
-0.036110
-0.031913
-0.033950
-0.029918
-0.026433
-0.026261
-0.027360
-0.030204
-0.034102
-0.035917
-0.037295
-0.036646
-0.033844
-0.027925
-0.013913
-0.007343
0.005998
0.011439
0.013141
0.012095
0.009862
0.007648
0.006509
0.006203
0.000000
0.000000
0.000000
0.000000
0.185470
0.177176
0.153585
0.124256
0.217258
0.191061
0.143399
0.085879
0.030275
-0.016184
-0.051198
-0.075997
-0.092635
-0.102829
-0.106518
-0.104859
-0.101374
-0.094715
-0.085315
-0.074602
-0.063114
-0.051783
-0.041546
-0.033269
-0.027152
-0.023140
-0.020689
-0.020836
0.000000
0.000000
0.000000
0.000000
0.000000
0.000000
0.000000
0.000000
0.000000
0.000000
0.000000
0.000000
0.000000
0.000000
0.000000
0.000000
0.000000
0.000000
0.000000
0.000000
0.002640
0.017811
0.052890
0.105853
0.163036
0.205136
0.218951
0.214193
0.185445
0.138204
-0.034202
-0.002055
-0.009454
-0.018613
-0.023990
-0.030226
-0.032071
-0.029029
-0.029178
-0.028020
-0.031967
-0.031129
-0.030486
-0.030727
-0.028476
-0.026705
-0.026371
-0.028206
-0.032641
-0.037451
-0.040636
-0.040202
-0.037144
-0.027104
-0.007566
0.001691
0.009276
0.012564
0.013461
0.011969
0.009746
0.008019
0.004994
0.002677
0.001299
0.021352
0.064282
0.125483
0.173321
0.189061
0.184824
0.162853
0.139347
0.118189
0.091106
0.065107
0.084967
0.035677
-0.004367
-0.035070
-0.058595
-0.076786
-0.089809
-0.097224
-0.099780
-0.098589
-0.094492
-0.088703
-0.080742
-0.071118
-0.060748
-0.050612
-0.041175
-0.032460
-0.024819
-0.018372
0.000000
0.000000
0.000000
0.000000
0.000000
0.000000
0.000000
0.000000
0.000000
0.000000
0.000000
0.000000
0.000000
0.000000
0.000000
0.000000
0.000000
0.000000
0.000000
0.000000
0.000000
0.004767
0.023832
0.062717
0.116949
0.171560
0.208736
0.219742
0.210467
0.181266
0.136803
0.089032
0.046717
0.012551
0.000000
0.000000
0.000000
0.000000
-0.017731
-0.022044
-0.025770
-0.025498
-0.022211
-0.030542
-0.032463
-0.032818
-0.031512
-0.030849
-0.030439
-0.030737
-0.033690
-0.034256
-0.032162
-0.021316
-0.003751
0.010808
0.015082
0.012580
0.012881
0.010863
0.008251
0.005703
0.002427
0.000686
0.000094
0.000689
0.021927
0.065554
0.123082
0.168462
0.181991
0.179177
0.164868
0.149472
0.130083
0.098242
0.065248
0.036152
0.016553
0.004315
-0.014433
-0.036410
-0.054547
-0.068890
-0.079303
-0.085629
-0.088148
-0.087077
-0.083248
-0.076307
-0.067684
-0.058143
-0.047218
-0.035159
-0.024226
-0.008304
0.000000
0.000000
0.000000
0.000000
0.000000
0.000000
0.000000
0.000000
0.000000
0.000000
0.000000
0.000000
0.000000
0.000000
0.000000
0.000000
0.000000
0.000000
0.000000
0.000000
0.000000
0.000315
0.006960
0.028914
0.069848
0.123685
0.175250
0.208605
0.218077
0.206714
0.178460
0.138479
0.097304
0.061206
0.032103
0.008999
-0.010116
-0.026679
-0.025933
-0.005020
0.003734
0.010314
0.009834
-0.001521
-0.005763
-0.005345
0.000000
0.000000
0.000000
0.000000
-0.016374
-0.021319
-0.023537
-0.011898
0.001164
0.013608
0.018933
0.016374
0.010019
0.008532
0.006097
0.002796
0.000765
0.000068
0.000000
0.000000
0.000566
0.021245
0.062708
0.116327
0.161349
0.173176
0.170050
0.156163
0.144256
0.130480
0.104945
0.077207
0.050812
0.028549
0.012422
0.005113
0.009905
0.014765
-0.041050
-0.052397
-0.060450
-0.065161
-0.066527
-0.064759
-0.059818
-0.051894
-0.041597
-0.028467
-0.014697
0.010555
0.000000
0.000000
0.000000
0.000000
0.000000
0.000000
0.000000
0.000000
0.000000
0.000000
0.000000
0.000000
0.000000
0.000000
0.000000
0.000000
0.000000
0.000000
0.000000
0.000000
0.000000
0.000000
0.000699
0.008793
0.032314
0.073580
0.125723
0.174343
0.204909
0.213380
0.202859
0.177445
0.143314
0.107862
0.076897
0.052836
0.033836
0.017766
0.003658
-0.008357
-0.018379
-0.026037
0.012538
0.017504
0.023112
0.022346
0.018446
0.013603
0.007204
0.002813
0.000555
-0.002026
-0.003667
0.009921
0.013892
0.019622
0.021891
0.021452
0.000000
0.000000
0.000000
0.000000
0.000000
0.000000
0.000000
0.000000
0.000000
0.000945
0.020037
0.057788
0.105968
0.150161
0.163236
0.160962
0.146329
0.133485
0.121913
0.104966
0.083767
0.061669
0.041875
0.028213
0.023262
0.029529
0.035492
0.037868
0.036216
0.033270
-0.030837
-0.032305
-0.030850
-0.026303
-0.018470
-0.006650
0.006127
0.035313
0.000000
0.000000
0.000000
0.000000
0.000000
0.000000
0.000000
0.000000
0.000000
0.000000
0.000000
0.000000
0.000000
0.000000
0.000000
0.000000
0.000000
0.000000
0.000000
0.000000
0.000000
0.000000
0.000000
0.001000
0.009863
0.033571
0.073597
0.123057
0.168789
0.198280
0.207161
0.199158
0.177616
0.148442
0.118884
0.093385
0.072784
0.056836
0.044258
0.033743
0.024520
0.016925
0.011656
0.008667
0.008061
0.010061
0.033024
0.037825
0.038231
0.035717
0.032525
0.032010
0.027650
0.032885
0.022768
0.019574
0.017373
0.011657
0.005532
0.000543
0.000000
0.000000
0.000000
0.000000
0.000000
0.000000
0.000000
0.000000
0.001921
0.013363
0.000000
0.000000
0.000000
0.000000
0.141639
0.130600
0.120962
0.110345
0.099344
0.083047
0.066158
0.052153
0.041407
0.037680
0.042508
0.050335
0.054528
0.052658
0.048373
0.036785
0.030097
0.025150
0.014784
0.023296
0.032004
0.058808
0.000000
0.000000
0.000000
0.000000
0.000000
0.000000
0.000000
0.000000
0.000000
0.000000
0.000000
0.000000
0.000000
0.000000
0.000000
0.000000
0.000000
0.000000
0.000000
0.000000
0.000000
0.000000
0.000000
0.000000
0.001141
0.009938
0.032508
0.069909
0.115865
0.158893
0.188022
0.198288
0.192091
0.176560
0.154125
0.129296
0.107024
0.089974
0.077126
0.066985
0.058734
0.052220
0.047527
0.044482
0.042992
0.043245
0.045372
0.049937
0.053382
0.074188
0.069902
0.065801
0.056566
0.053077
0.031585
0.023565
0.017354
0.009984
0.004121
0.001344
0.000000
0.000000
0.000000
0.000000
0.000000
0.000000
0.000000
0.000000
0.000000
0.000715
0.015237
0.042806
0.078105
0.113275
0.134867
0.137496
0.125431
0.107715
0.089412
0.071693
0.059337
0.064659
0.000000
0.000000
0.000000
0.000000
0.051326
0.057095
0.060909
0.057797
0.057299
0.049643
0.048397
0.039191
0.036340
0.039755
0.000000
0.000000
0.000000
0.000000
0.000000
0.000000
0.000000
0.000000
0.000000
0.000000
0.000000
0.000000
0.000000
0.000000
0.000000
0.000000
0.000000
0.000000
0.000000
0.000000
0.000000
0.000000
0.000000
0.000000
0.000000
0.001046
0.009007
0.029281
0.062879
0.104575
0.144613
0.173500
0.185655
0.185359
0.173254
0.155604
0.136174
0.118485
0.103782
0.092152
0.083292
0.076717
0.071913
0.068460
0.066198
0.065099
0.064967
0.065817
0.064459
0.079506
0.000000
0.000000
0.000000
0.000000
0.001378
0.000118
0.000028
-0.000000
-0.000000
-0.000001
-0.000001
-0.000001
-0.000001
-0.000000
-0.000000
-0.000000
0.000000
0.000000
0.000000
0.000000
0.000093
0.011073
0.032923
0.061727
0.091340
0.116201
0.122287
0.117739
0.104590
0.091904
0.080508
0.070601
0.062604
0.054148
0.047494
0.044998
0.048474
0.056425
0.062442
0.062253
0.058705
0.049265
0.047307
0.038352
0.000000
0.000000
0.000000
0.000000
0.036264
0.038320
0.000000
0.000000
0.000000
0.000000
0.000000
0.000000
0.000000
0.000000
0.000000
0.000000
0.000000
0.000000
0.000000
0.000000
0.000000
0.000000
0.000000
0.000000
0.000000
0.000000
0.000000
0.000000
0.000763
0.007264
0.024363
0.053220
0.089911
0.126593
0.155289
0.170474
0.173023
0.165512
0.153987
0.139624
0.125091
0.112233
0.101733
0.093519
0.087116
0.082210
0.078543
0.075851
0.073539
0.071432
0.068065
0.079598
0.000000
0.000000
0.000000
0.000000
0.000000
0.000000
0.000000
0.000000
0.000000
0.000000
0.000000
0.000000
0.000000
0.000000
0.000000
0.000000
0.000000
0.000000
0.000000
0.000017
0.000571
0.004150
0.013579
0.029934
0.051555
0.074701
0.096392
0.105585
0.104899
0.097086
0.085484
0.074471
0.064456
0.055825
0.050106
0.044545
0.042187
0.045222
0.051860
0.058426
0.061214
0.059364
0.058961
0.057179
0.055947
0.052491
0.049996
0.048834
0.049892
0.051563
0.053366
0.054937
0.054091
0.069317
0.000000
0.000000
0.000000
0.000000
0.000000
0.000000
0.000000
0.000000
0.000000
0.000000
0.000000
0.000000
0.000000
0.000000
0.000000
0.000000
0.000000
0.000000
0.000000
0.000414
0.005093
0.018474
0.041940
0.072928
0.105538
0.133191
0.151318
0.158585
0.156379
0.147569
0.137271
0.126076
0.115128
0.105581
0.097391
0.090490
0.084762
0.079886
0.075811
0.072703
0.068966
0.075538
0.000000
0.000000
0.000000
0.000000
0.000000
0.000000
0.000000
0.000000
0.000000
0.000000
0.000000
0.000000
0.005356
0.001402
0.000000
0.000000
0.000000
0.000000
0.000000
0.000000
0.000000
0.000000
0.000000
0.000000
0.000000
0.000000
0.000000
0.000000
0.000000
0.000000
0.000000
0.000000
0.000000
0.000000
0.000000
0.000000
0.000000
0.000000
0.000000
0.000000
0.000000
0.000000
0.000000
0.000000
0.000000
0.000000
0.000000
0.000000
0.000000
0.000000
0.000000
0.000000
0.000000
0.000000
0.000000
0.000000
0.000000
0.000000
0.000000
0.000000
0.000000
0.000000
0.000000
0.000000
0.000000
0.000000
0.000000
0.000000
0.000000
0.000000
0.000000
0.000000
0.000000
0.000000
0.000134
0.002968
0.012424
0.030237
0.055016
0.082679
0.108129
0.127289
0.137628
0.140981
0.137631
0.130518
0.121154
0.112228
0.103650
0.095498
0.088150
0.081725
0.076175
0.071405
0.066894
0.065816
0.000000
0.000000
0.000000
0.000000
0.000000
0.000000
0.000000
0.000000
0.000000
0.000000
0.000000
0.000000
0.000000
0.000000
0.000000
0.000000
0.000000
0.000000
0.000000
0.000000
0.000000
0.000000
0.000000
0.000000
0.000000
0.000000
0.000000
0.000000
0.000000
0.000000
0.000000
0.000000
0.000000
0.000000
0.000000
0.000000
0.000000
0.000000
0.000000
0.000000
0.000000
0.000000
0.000000
0.000000
0.000000
0.000000
0.000000
0.000000
0.000000
0.000000
0.000000
0.000000
0.000000
0.000000
0.000000
0.000000
0.000000
0.000000
0.000000
0.000000
0.000000
0.000000
0.000000
0.000000
0.000000
0.000000
0.000000
0.000000
0.000000
0.000000
0.000000
0.000000
0.000000
0.000000
0.000000
0.000000
0.001288
0.007112
0.019400
0.037766
0.059718
0.081560
0.099933
0.112790
0.119402
0.120521
0.117574
0.111841
0.104687
0.097095
0.089472
0.082013
0.074803
0.067859
0.060969
0.054366
0.000000
0.000000
0.000000
0.000000
0.000000
0.000000
0.000000
0.000000
0.000000
0.000000
0.000000
0.000000
0.000000
0.000000
0.000000
0.000000
0.000000
0.000000
0.000000
0.000000
0.000000
0.000000
0.000000
0.000000
0.000000
0.000000
0.000000
0.000000
0.000000
0.000000
0.000000
0.000000
0.000000
0.000000
0.000000
0.000000
0.000000
0.000000
0.000000
0.000000
0.000000
0.000000
0.000000
0.000000
0.000000
0.000000
0.000000
0.000000
0.000000
0.000000
0.000000
0.000000
0.000000
0.000000
0.000000
0.000000
0.000000
0.000000
0.000000
0.000000
0.000000
0.000000
0.000000
0.000000
0.000000
0.000000
0.000000
0.000000
0.000000
0.000000
0.000000
0.000000
0.000000
0.000000
0.000000
0.000000
0.000000
0.000294
0.003125
0.010538
0.022841
0.038764
0.055915
0.071722
0.084286
0.092550
0.096697
0.097250
0.094647
0.089907
0.083803
0.076747
0.069083
0.060960
0.051870
0.043955
0.000000
0.000000
0.000000
0.000000
0.000000
0.000000
0.000000
0.000000
0.000000
0.000000
0.000000
0.000000
0.000000
0.000000
0.000000
0.000000
0.000000
0.000000
0.000000
0.000000
0.000000
0.000000
0.000000
0.000000
0.000000
0.000000
0.000000
0.000000
0.000000
0.000000
0.000000
0.000000
0.000000
0.000000
0.000000
0.000000
0.000000
0.000000
0.000000
0.000000
0.000000
0.000000
0.000000
0.000000
0.000000
0.000000
0.000000
0.000000
0.000000
0.000000
0.000000
0.000000
0.000000
0.000000
0.000000
0.000000
0.000000
0.000000
0.000000
0.000000
0.000000
0.000000
0.000000
0.000000
0.000000
0.000000
0.000000
0.000000
0.000000
0.000000
0.000000
0.000000
0.000000
0.000000
0.000000
0.000000
0.000000
0.000000
0.000000
0.000866
0.004404
0.011445
0.021580
0.033485
0.045459
0.055950
0.063962
0.068925
0.071218
0.070588
0.067702
0.062927
0.056723
0.049191
0.040113
0.032385
0.000000
0.000000
0.000000
0.000000
0.000000
0.000000
0.000000
0.000000
0.000000
0.000000
0.000000
0.000000
0.000000
0.000000
0.000000
0.000000
0.000000
0.000000
0.000000
0.000000
0.000000
0.000000
0.000000
0.000000
0.000000
0.000000
0.000000
0.000000
0.000000
0.000000
0.000000
0.000000
0.000000
0.000000
0.000000
0.000000
0.000000
0.000000
0.000000
0.000000
0.000000
0.000000
0.000000
0.000000
0.000000
0.000000
0.000000
0.000000
0.000000
0.000000
0.000000
0.000000
0.000000
0.000000
0.000000
0.000000
0.000000
0.000000
0.000000
0.000000
0.000000
0.000000
0.000000
0.000000
0.000000
0.000000
0.000000
0.000000
0.000000
0.000000
0.000000
0.000000
0.000000
0.000000
0.000000
0.000000
0.000000
0.000000
0.000000
0.000000
0.000066
0.001083
0.004173
0.009493
0.016489
0.024188
0.031524
0.037637
0.041925
0.044183
0.044395
0.042551
0.038850
0.033570
0.026767
0.020592
0.000000
0.000000
0.000000
0.000000
0.000000
0.000000
0.000000
0.000000
0.000000
0.000000
0.000000
0.000000
0.000000
0.000000
0.000000
0.000000
0.000000
0.000000
0.000000
0.000000
0.000000
0.000000
0.000000
0.000000
0.000000
0.000000
0.000000
0.000000
0.000000
0.000000
0.000000
0.000000
0.000000
0.000000
0.000000
0.000000
0.000000
0.000000
0.000000
0.000000
0.000000
0.000000
0.000000
0.000000
0.000000
0.000000
0.000000
0.000000
0.000000
0.000000
0.000000
0.000000
0.000000
0.000000
0.000000
0.000000
0.000000
0.000000
0.000000
0.000000
0.000000
0.000000
0.000000
0.000000
0.000000
0.000000
0.000000
0.000000
0.000000
0.000000
0.000000
0.000000
0.000000
0.000000
0.000000
0.000000
0.000000
0.000000
0.000000
0.000000
0.000000
0.000000
0.000058
0.000764
0.002721
0.005862
0.009770
0.013827
0.017452
0.020153
0.021681
0.021853
0.020467
0.017951
0.014187
0.010023
0.000000
0.000000
0.000000
0.000000
0.000000
0.000000
0.000000
0.000000
0.000000
0.000000
0.000000
0.000000
0.000000
0.000000
0.000000