# vtk DataFile Version 3.0
Created by write_to_vtk2d
ASCII
DATASET STRUCTURED_POINTS
DIMENSIONS 100 100 1
SPACING 1.000000 1.000000 0.0
ORIGIN 0.000000 0.000000 0.0
POINT_DATA 10000
SCALARS p float 1
LOOKUP_TABLE p_table
0.006773
0.012854
0.013864
0.012672
0.010732
0.009800
0.009195
0.008883
0.008841
0.008633
0.008052
0.008049
0.000000
0.000000
0.000000
0.000000
-0.003339
-0.003428
-0.003809
-0.004084
-0.004358
-0.004658
-0.005352
-0.006606
-0.007683
-0.008562
-0.008792
-0.008815
-0.008282
-0.008157
-0.007307
-0.006252
-0.003562
0.002370
0.011239
0.022817
0.040644
0.056355
0.066758
0.070387
0.068707
0.062608
0.053069
0.039708
0.020009
0.004505
-0.001043
0.003993
0.005968
-0.000487
-0.011745
-0.013476
-0.010957
-0.005516
-0.000244
0.002358
0.002494
0.001500
-0.000012
-0.001298
-0.002153
-0.002735
-0.003268
-0.003822
-0.004374
-0.004905
-0.005436
-0.005998
-0.006578
-0.007155
-0.007726
-0.008299
-0.008894
-0.009519
-0.010168
-0.010825
-0.011462
-0.012098
-0.012749
-0.013370
-0.013145
-0.013282
-0.013593
-0.014902
-0.016063
-0.016966
-0.017785
-0.018513
-0.019079
-0.021296
0.030649
0.039572
0.047976
0.052824
0.054108
0.052241
0.043901
0.027296
0.006317
-0.011508
-0.020405
-0.020684
0.016895
0.011188
0.011194
0.012554
0.009783
0.004634
-0.000427
-0.005933
-0.008454
-0.009750
-0.010385
-0.010405
-0.010320
-0.010206
-0.009671
-0.008736
-0.009331
-0.010379
0.000000
0.000000
0.000000
0.000000
-0.031494
-0.028894
-0.026777
-0.023303
-0.018975
-0.014070
-0.007697
0.003456
0.023595
0.044367
0.064348
0.078853
0.083552
0.080787
0.071422
0.047157
0.012694
-0.018465
-0.036533
-0.037373
-0.028452
-0.024127
-0.016770
-0.014903
-0.014634
-0.018943
0.000179
0.003514
0.003482
0.002036
0.000101
-0.001450
-0.002391
-0.002947
-0.003421
-0.003934
-0.004476
-0.005011
-0.005529
-0.006050
-0.006574
-0.007088
-0.007587
-0.008075
-0.008578
-0.009118
-0.009696
-0.010302
-0.010902
-0.011488
-0.012033
-0.012599
-0.012635
-0.012954
-0.013264
-0.014309
-0.015386
-0.016426
-0.017312
-0.018273
-0.018993
-0.020239
0.034561
0.044573
0.053490
0.057958
0.058257
0.055096
0.044292
0.024778
0.001006
-0.018805
-0.028294
-0.027734
-0.020297
-0.009235
0.000081
0.004335
-0.001178
-0.004046
-0.007325
-0.007670
-0.008404
-0.008203
-0.008377
-0.009607
-0.011840
-0.013261
-0.014542
-0.016244
-0.017290
-0.017919
-0.017698
-0.015442
-0.013455
-0.012214
-0.008780
-0.007714
-0.006309
-0.004870
-0.004050
-0.002708
-0.000641
0.001478
0.000000
0.000000
0.000000
0.000000
0.089459
0.081957
0.069801
0.042852
0.007362
-0.026473
-0.046842
-0.047885
-0.043577
-0.032643
-0.017614
-0.008359
-0.005945
-0.008393
-0.011440
-0.012552
-0.013263
-0.011276
0.000346
-0.001455
-0.002502
-0.003064
-0.003510
-0.003998
-0.004513
-0.005022
-0.005524
-0.006033
-0.006541
-0.007033
-0.007507
-0.007965
-0.008429
-0.008915
-0.009436
-0.009998
-0.010580
-0.011163
-0.011697
-0.012304
-0.012677
-0.013099
-0.013296
-0.013794
-0.014456
-0.015418
-0.016456
-0.017357
-0.018044
-0.019387
0.037678
0.048963
0.058647
0.062938
0.062782
0.058370
0.045453
0.023437
-0.002961
-0.024968
-0.035543
-0.034797
-0.025868
-0.012373
-0.000768
0.004813
0.005238
0.003479
0.000824
-0.001301
-0.007673
-0.008309
-0.009868
-0.008318
-0.009778
-0.010502
-0.010950
-0.011474
-0.012160
-0.013727
-0.015534
-0.016497
-0.017108
-0.017673
-0.018280
-0.018873
-0.018971
-0.018224
-0.016256
-0.011323
-0.002368
0.011091
0.027902
0.045260
0.059470
0.067480
0.067949
0.063670
0.051676
0.031558
-0.000981
-0.030157
-0.041505
-0.039369
0.000000
0.000000
0.000000
0.000000
0.002768
0.003541
-0.000400
-0.002790
-0.002573
-0.002207
-0.003481
-0.005694
-0.009257
-0.009506
-0.003590
-0.004063
-0.004553
-0.005038
-0.005522
-0.006019
-0.006523
-0.007006
-0.007466
-0.007902
-0.008331
-0.008762
-0.009199
-0.009642
-0.010092
-0.010569
-0.011050
-0.011701
-0.012219
-0.012844
-0.013373
-0.013668
-0.014037
-0.014807
-0.015735
-0.016664
-0.017415
-0.018693
0.039920
0.052689
0.063415
0.067915
0.067504
0.062109
0.047570
0.023442
-0.005391
-0.029842
-0.042118
-0.041725
-0.032012
-0.016579
-0.002520
0.004976
0.006109
0.004432
0.001548
-0.000988
-0.002495
-0.003239
-0.003691
-0.004134
-0.013748
-0.013334
-0.014172
-0.013135
-0.013314
-0.014214
-0.015179
-0.014864
-0.014059
-0.013937
-0.013613
-0.014402
-0.013556
-0.013924
-0.013185
-0.009865
-0.003311
0.008993
0.027214
0.049573
0.073317
0.094403
0.105360
0.100925
0.085025
0.053639
0.011562
-0.030340
-0.057586
-0.060247
-0.060411
-0.049657
-0.028374
-0.010917
-0.003669
-0.003059
-0.006423
-0.007160
-0.005533
-0.003214
-0.003836
-0.005083
0.000000
0.000000
0.000000
0.000000
-0.013223
-0.012453
-0.005489
-0.005960
-0.006451
-0.006922
-0.007363
-0.007775
-0.008184
-0.008591
-0.008997
-0.009414
-0.009867
-0.010383
-0.010908
-0.011599
-0.012480
-0.013232
-0.013412
-0.013072
-0.013007
-0.013493
-0.014250
-0.015265
-0.015997
-0.018153
0.041197
0.055666
0.067709
0.072857
0.072387
0.066340
0.050656
0.024869
-0.006160
-0.033258
-0.047704
-0.048333
-0.038669
-0.021754
-0.005327
0.004446
0.006586
0.005350
0.002369
-0.000515
-0.002370
-0.003315
-0.003813
-0.004220
-0.004622
-0.005015
-0.005414
-0.005845
-0.016574
-0.015903
-0.019550
-0.018627
-0.018778
-0.015782
-0.013046
-0.012547
-0.011696
-0.010935
-0.010195
-0.009211
-0.002078
0.011238
0.028696
0.049094
0.069845
0.089304
0.104835
0.108950
0.095211
0.062921
0.018084
-0.027986
-0.059681
-0.065809
-0.066413
-0.058857
-0.037729
-0.017709
-0.007460
-0.005443
-0.006726
-0.007203
-0.005798
-0.003094
-0.003893
-0.005353
-0.006855
-0.007410
-0.007736
-0.007694
-0.006707
-0.005856
-0.005311
-0.005168
-0.008708
-0.007722
-0.007164
-0.007536
-0.007895
-0.008255
-0.008601
-0.008957
-0.009345
-0.009794
-0.010270
-0.010991
-0.011895
-0.012986
-0.013478
-0.013303
-0.013283
-0.013403
-0.013632
-0.014213
-0.014683
-0.017876
0.041406
0.057765
0.071525
0.077634
0.077324
0.071004
0.054642
0.027690
-0.005200
-0.034983
-0.052133
-0.054717
-0.045948
-0.028116
-0.009393
0.002984
0.006933
0.006158
0.003352
0.000213
-0.002025
-0.003240
-0.003865
-0.004291
-0.004679
-0.005051
-0.005423
-0.005823
-0.006263
-0.006700
-0.007110
-0.007491
-0.008103
-0.007678
-0.010044
-0.012414
0.000000
0.000000
0.000000
0.000000
-0.010391
0.003116
0.023044
0.045539
0.061964
0.078843
0.093452
0.102952
0.098241
0.068718
0.022971
-0.025903
-0.061627
-0.072799
-0.074233
-0.070231
-0.049883
-0.027334
-0.013566
-0.008979
-0.008306
-0.007505
-0.005633
-0.002893
-0.003848
-0.005707
-0.007376
-0.008373
-0.009057
-0.009163
-0.007924
-0.007421
-0.007341
-0.007589
-0.008145
-0.009132
-0.010240
-0.012435
-0.026437
-0.026484
-0.008549
-0.008897
-0.009266
-0.009666
-0.009986
-0.010388
-0.011351
-0.012354
-0.012979
-0.012999
-0.012876
-0.012898
-0.012927
-0.013290
-0.013530
-0.017062
0.040546
0.058852
0.074629
0.082167
0.082290
0.076214
0.059616
0.031966
-0.002599
-0.035087
-0.055690
-0.060467
-0.053176
-0.035637
-0.014986
0.000342
0.006717
0.006738
0.004368
0.001212
-0.001396
-0.002988
-0.003832
-0.004340
-0.004754
-0.005118
-0.005453
-0.005792
-0.006167
-0.006564
-0.006955
-0.007331
-0.007694
-0.008041
-0.008361
-0.008671
-0.021471
-0.020185
-0.022232
-0.017897
-0.012114
-0.000711
0.020298
0.043450
0.057742
0.066941
0.065003
0.063060
0.000000
0.000000
0.000000
0.000000
-0.049012
-0.072611
-0.068573
-0.070160
-0.055533
-0.031879
-0.014093
-0.007051
-0.005128
-0.003309
-0.001355
-0.001177
-0.003801
-0.005240
-0.006697
-0.007829
-0.008830
-0.008938
-0.007905
-0.006294
-0.005426
-0.005477
-0.006311
-0.007230
-0.007883
-0.007628
-0.008261
-0.008698
-0.008962
-0.006995
-0.011974
-0.004551
-0.009507
-0.009782
-0.010567
-0.011442
-0.012324
-0.012759
-0.012927
-0.012948
-0.012786
-0.012818
-0.012669
-0.015962
0.038626
0.058764
0.076807
0.086464
0.087476
0.081843
0.065523
0.037584
0.001815
-0.033233
-0.057532
-0.064476
-0.060264
-0.043691
-0.021973
-0.003833
0.005505
0.007003
0.005450
0.002464
-0.000452
-0.002469
-0.003643
-0.004333
-0.004833
-0.005232
-0.005553
-0.005835
-0.006132
-0.006463
-0.006805
-0.007145
-0.007483
-0.007819
-0.008144
-0.008467
-0.008776
-0.009108
-0.009324
-0.009481
-0.002582
0.002920
0.018092
0.042793
0.063807
0.081103
0.095105
0.103353
0.103904
0.083931
0.040353
-0.013941
-0.058536
-0.075823
-0.067118
-0.056995
-0.043101
-0.028369
-0.013779
-0.010286
0.000000
0.000000
0.000000
0.000000
-0.000623
-0.003303
-0.005629
-0.006883
-0.008137
-0.008672
-0.008427
-0.007803
-0.007948
-0.008125
-0.008728
-0.009245
-0.009835
-0.011469
-0.011500
-0.011053
-0.009915
-0.008036
-0.007211
-0.005963
-0.002303
0.010301
0.038587
0.055093
-0.011254
-0.011896
-0.012314
-0.012423
-0.012495
-0.012760
-0.012383
-0.015377
0.035671
0.057398
0.077848
0.090172
0.092403
0.087766
0.072217
0.044525
0.007993
-0.029437
-0.057392
-0.069381
-0.066742
-0.052311
-0.030290
-0.009555
0.003146
0.006822
0.006226
0.003722
0.000762
-0.001615
-0.003189
-0.004175
-0.004840
-0.005300
-0.005610
-0.005836
-0.006075
-0.006367
-0.006682
-0.007002
-0.007316
-0.007628
-0.007924
-0.008223
-0.008503
-0.008817
-0.009063
-0.009206
-0.009547
-0.009928
-0.010490
-0.011099
0.065232
0.076023
0.101189
0.115615
0.120899
0.100023
0.055846
0.000859
-0.049228
-0.077554
-0.075390
-0.081949
-0.078780
-0.056920
-0.032041
-0.015359
-0.007568
-0.002737
0.002108
0.005371
0.001829
-0.001320
-0.001939
-0.000539
0.000561
-0.002403
-0.003618
-0.003357
0.000000
0.000000
0.000000
0.000000
-0.012306
-0.011281
-0.011555
-0.011789
-0.011908
-0.011370
-0.012563
-0.011404
-0.011097
-0.011145
-0.004829
-0.000317
0.009818
0.029376
0.092420
0.094164
-0.011991
-0.012155
-0.012331
-0.015306
0.031833
0.054659
0.077497
0.092858
0.097244
0.093958
0.079671
0.052725
0.015887
-0.023521
-0.055372
-0.071434
-0.072044
-0.060614
-0.039567
-0.017075
-0.000914
0.005938
0.006461
0.004764
0.002079
-0.000451
-0.002405
-0.003785
-0.004735
-0.005334
-0.005662
-0.005841
-0.006012
-0.006253
-0.006532
-0.006831
-0.007127
-0.007423
-0.007695
-0.007963
-0.008180
-0.008448
-0.008715
-0.008912
-0.009239
-0.009573
-0.010096
-0.010478
-0.011012
-0.011426
-0.011739
-0.012036
0.086979
0.065874
0.067179
0.008186
-0.041695
-0.074390
-0.072344
-0.076742
-0.078331
-0.065334
-0.041733
-0.021488
-0.010525
-0.003796
0.002353
0.006521
0.004628
0.000629
-0.002597
-0.003426
-0.003429
-0.004633
-0.007290
-0.008056
-0.006927
-0.005737
-0.005206
-0.005094
-0.005162
-0.005002
-0.004832
-0.004984
-0.005050
-0.004819
-0.004728
-0.005555
0.000000
0.000000
0.000000
0.000000
-0.006757
-0.002733
0.002549
0.012496
0.022055
0.018016
0.008450
-0.012038
0.027235
0.050599
0.075626
0.094321
0.102210
0.100048
0.087682
0.062109
0.025450
-0.015560
-0.051015
-0.071870
-0.076059
-0.068423
-0.049579
-0.026265
-0.007048
0.003490
0.005848
0.005331
0.003304
0.000918
-0.001261
-0.003024
-0.004338
-0.005195
-0.005649
-0.005850
-0.005995
-0.006178
-0.006411
-0.006689
-0.006976
-0.007276
-0.007545
-0.007808
-0.008009
-0.008264
-0.008484
-0.008666
-0.008916
-0.009127
-0.009563
-0.009937
-0.010397
-0.010783
-0.011150
-0.011483
-0.011129
-0.013535
0.022170
0.045244
-0.045919
-0.083687
-0.088401
-0.096606
-0.095221
-0.082729
-0.056112
-0.033252
-0.014659
-0.005372
-0.000579
0.006050
0.005068
-0.000122
-0.005463
-0.008781
-0.010609
-0.011747
-0.011749
-0.010641
-0.009104
-0.008388
-0.008363
-0.008112
-0.007960
-0.007740
-0.007444
-0.007679
-0.008464
-0.009592
-0.010280
-0.010179
-0.009470
-0.008851
-0.008415
-0.008005
-0.007755
-0.007990
-0.007920
-0.004501
0.000817
0.016343
0.037729
0.054517
0.000000
0.000000
0.000000
0.000000
0.105533
0.105903
0.096015
0.072371
0.036593
-0.005411
-0.044201
-0.070205
-0.078389
-0.075084
-0.059417
-0.036708
-0.015207
-0.000887
0.004933
0.005448
0.004260
0.002281
0.000096
-0.001961
-0.003661
-0.004886
-0.005607
-0.005935
-0.006073
-0.006211
-0.006350
-0.006536
-0.006730
-0.006964
-0.007191
-0.007458
-0.007676
-0.007924
-0.008179
-0.008414
-0.008691
-0.008884
-0.009254
-0.009496
-0.009871
-0.010219
-0.010568
-0.010909
-0.010591
-0.012848
0.016956
0.038785
0.066426
0.092023
0.107985
0.111015
0.000000
0.000000
-0.069774
-0.035964
-0.018308
-0.007849
-0.001613
0.003993
0.010582
0.005140
-0.001414
-0.005854
-0.009366
-0.011736
-0.012691
-0.011886
-0.010406
-0.008744
-0.008341
-0.008556
-0.008257
-0.007610
-0.007030
-0.007099
-0.007309
-0.007972
-0.008752
-0.008639
-0.008298
-0.008227
-0.008251
-0.008461
-0.008282
-0.008173
-0.008968
-0.005606
-0.000018
0.016149
0.043799
0.075322
0.098474
0.104825
0.095381
0.069642
0.038636
0.029220
-0.005338
0.000380
0.049199
0.006782
-0.034901
-0.066001
-0.080454
-0.080189
-0.068521
-0.047840
-0.025155
-0.007440
0.002137
0.004772
0.004577
0.003274
0.001453
-0.000560
-0.002493
-0.004118
-0.005253
-0.005884
-0.006174
-0.006328
-0.006449
-0.006580
-0.006705
-0.006870
-0.007016
-0.007206
-0.007368
-0.007566
-0.007784
-0.008004
-0.008284
-0.008486
-0.008832
-0.009064
-0.009395
-0.009648
-0.009940
-0.010268
-0.010023
-0.012176
0.011963
0.031583
0.059137
0.087577
0.108180
0.115652
0.112132
0.094946
0.062976
0.020956
0.004554
0.025490
0.017460
0.021627
0.006969
-0.003942
0.000000
0.000000
0.000000
0.000000
-0.012938
-0.012788
-0.011840
-0.009795
-0.008083
-0.007170
-0.006817
-0.006377
-0.006013
-0.006183
-0.006519
-0.006798
-0.006794
-0.006578
-0.006877
-0.007005
-0.006991
-0.006849
-0.006739
-0.006971
-0.008154
-0.007416
-0.004265
0.008377
0.033574
0.065445
0.094757
0.112632
0.117391
0.112443
0.089322
0.054710
0.008576
-0.036576
-0.056647
-0.057567
-0.025180
-0.012859
-0.079351
-0.083388
-0.076343
-0.058862
-0.036325
-0.016100
-0.002769
0.003186
0.004183
0.003680
0.002491
0.000858
-0.001031
-0.002924
-0.004497
-0.005543
-0.006069
-0.006274
-0.006373
-0.006450
-0.006518
-0.006652
-0.006786
-0.006981
-0.007160
-0.007367
-0.007583
-0.007777
-0.008017
-0.008173
-0.008451
-0.008606
-0.008862
-0.009102
-0.009355
-0.009659
-0.009474
-0.011512
0.007563
0.024098
0.050355
0.080705
0.106156
0.119071
0.118921
0.106111
0.077647
0.036974
-0.008381
-0.048731
-0.075227
-0.084318
-0.012617
-0.006718
0.022129
0.025832
0.022684
0.013963
0.004417
-0.002865
-0.011767
-0.014114
-0.012139
-0.009772
-0.006462
-0.005161
0.000000
0.000000
0.000000
0.000000
-0.006090
-0.006080
-0.006441
-0.007020
-0.007465
-0.007709
-0.007909
-0.008196
-0.009140
-0.008963
-0.007317
0.000707
0.021919
0.052908
0.085407
0.109535
0.121173
0.127532
0.125844
0.101072
0.048024
-0.011969
-0.060045
-0.082205
-0.081018
-0.069372
-0.050950
-0.038040
-0.030696
-0.015276
-0.048111
-0.026659
-0.010073
-0.000536
0.003126
0.003582
0.003111
0.002109
0.000555
-0.001378
-0.003331
-0.004896
-0.005856
-0.006264
-0.006379
-0.006443
-0.006436
-0.006487
-0.006546
-0.006691
-0.006851
-0.007056
-0.007282
-0.007467
-0.007688
-0.007822
-0.008060
-0.008175
-0.008381
-0.008579
-0.008798
-0.009080
-0.008918
-0.010697
0.004074
0.016903
0.040570
0.071440
0.100928
0.119957
0.124164
0.116554
0.092869
0.054627
0.008829
-0.035042
-0.067907
-0.083935
-0.085625
-0.077443
-0.059859
-0.038613
-0.005363
-0.018480
-0.011716
-0.012381
-0.005538
-0.000979
0.001402
0.001214
-0.000274
-0.002509
-0.005345
-0.006946
-0.007177
-0.006731
-0.006418
-0.005680
-0.004017
-0.003136
-0.003378
-0.003686
-0.004272
-0.005136
0.000000
0.000000
0.000000
0.000000
0.011700
0.040582
0.074560
0.104399
0.121003
0.129723
0.135959
0.128677
0.084252
0.022635
-0.034468
-0.077241
-0.085402
-0.085684
-0.080320
-0.065960
-0.048849
-0.034826
-0.021721
-0.008380
-0.006898
-0.006232
0.000396
0.002875
0.003166
0.002846
0.001920
0.000318
-0.001675
-0.003598
-0.005057
-0.005907
-0.006247
-0.006394
-0.006438
-0.006478
-0.006494
-0.006576
-0.006671
-0.006803
-0.006981
-0.007129
-0.007322
-0.007437
-0.007645
-0.007747
-0.007922
-0.008088
-0.008260
-0.008501
-0.008345
-0.009868
0.001678
0.010579
0.030472
0.060161
0.092586
0.117626
0.128748
0.125611
0.107659
0.073369
0.028408
-0.018092
-0.056734
-0.080412
-0.086598
-0.083826
-0.070672
-0.051136
-0.030953
-0.014780
-0.004481
0.000680
0.007743
-0.004433
-0.014810
-0.014214
-0.010289
-0.005799
-0.001618
0.000782
0.002442
0.002891
0.000852
-0.001945
-0.004090
-0.006233
-0.008081
-0.008745
-0.008971
-0.008376
-0.008167
-0.006890
-0.006818
-0.005475
0.005676
0.028993
0.061198
0.091890
0.109532
0.106705
0.090820
0.078988
0.000000
0.000000
0.000000
0.000000
-0.077141
-0.081497
-0.084116
-0.083537
-0.077197
-0.061959
-0.042454
-0.024098
-0.008169
0.002761
0.006709
0.001803
-0.005507
-0.008182
0.002581
0.001604
-0.000040
-0.001983
-0.003787
-0.005123
-0.005846
-0.006189
-0.006308
-0.006359
-0.006361
-0.006414
-0.006481
-0.006566
-0.006704
-0.006818
-0.006986
-0.007077
-0.007246
-0.007333
-0.007482
-0.007611
-0.007728
-0.007915
-0.007766
-0.009026
0.000388
0.005606
0.020895
0.047605
0.081075
0.111576
0.129296
0.132194
0.121100
0.092404
0.049862
0.001927
-0.041644
-0.072525
-0.086746
-0.087585
-0.079624
-0.063399
-0.043590
-0.025322
-0.011788
-0.003487
0.000730
0.002411
0.002693
0.002414
-0.004310
-0.006453
-0.006889
-0.005459
-0.004946
-0.004182
-0.002783
-0.003618
-0.004719
-0.003399
-0.002816
-0.003313
-0.005123
-0.007275
-0.011472
-0.015450
-0.018348
-0.016882
-0.003593
0.016493
0.046996
0.083191
0.113698
0.128515
0.133545
0.134879
0.127398
0.083047
0.023330
-0.039250
-0.079048
-0.084610
-0.079592
-0.065319
-0.042542
-0.021869
-0.011742
-0.014381
0.000000
0.000000
0.000000
0.000000
-0.000064
-0.005188
-0.007386
-0.006660
-0.004080
-0.004439
-0.002114
-0.003884
-0.005139
-0.005871
-0.006148
-0.006260
-0.006251
-0.006262
-0.006302
-0.006343
-0.006435
-0.006504
-0.006635
-0.006698
-0.006826
-0.006898
-0.007030
-0.007122
-0.007225
-0.007368
-0.007232
-0.008128
0.000000
0.002252
0.012651
0.034826
0.067022
0.101303
0.126739
0.136268
0.132071
0.110735
0.072533
0.024930
-0.022230
-0.059765
-0.081850
-0.087633
-0.085439
-0.074205
-0.056743
-0.037920
-0.021721
-0.010149
-0.003094
0.000632
0.002249
0.002589
0.002339
0.001366
-0.000200
-0.002070
-0.010819
-0.008685
-0.005753
-0.005263
-0.006194
-0.006218
-0.005765
-0.005325
-0.005735
-0.006461
-0.009070
-0.012644
-0.015770
-0.016738
-0.010030
0.008095
0.032630
0.066823
0.101631
0.125158
0.133107
0.138420
0.140121
0.118233
0.065770
0.000401
-0.054588
-0.080789
-0.080461
-0.078118
-0.075702
-0.073421
-0.067354
-0.051554
-0.032064
-0.013125
0.001844
0.010637
0.006594
-0.000703
-0.005804
-0.005069
-0.002113
-0.000564
-0.002915
-0.004219
0.000000
0.000000
-0.005634
-0.005939
-0.006055
-0.006086
-0.006129
-0.006149
-0.006204
-0.006219
-0.006306
-0.006342
-0.006430
-0.006479
-0.006574
-0.006651
-0.006715
-0.006796
-0.006722
-0.007182
0.000000
0.000504
0.006373
0.022985
0.051594
0.087081
0.119024
0.137116
0.139795
0.126929
0.095503
0.050614
0.001588
-0.041982
-0.072610
-0.086749
-0.088272
-0.082334
-0.068915
-0.051274
-0.033646
-0.019269
-0.009170
-0.002875
0.000628
0.002211
0.002526
0.002197
0.001221
-0.000343
-0.002033
-0.003559
-0.004635
-0.005290
0.000000
0.000000
0.000000
0.000000
-0.005679
-0.006433
-0.010007
-0.014044
-0.018153
-0.020697
-0.018329
-0.004062
0.019810
0.050136
0.086711
0.117871
0.133529
0.137233
0.139512
0.136523
0.099419
0.037574
-0.023620
-0.069253
-0.080783
-0.078166
-0.073494
-0.069307
-0.065208
-0.060872
-0.046941
-0.028544
-0.010819
0.002746
0.008257
0.002146
-0.004682
-0.008076
-0.011793
-0.013332
-0.011371
-0.009204
-0.009347
-0.009309
-0.008210
-0.007176
-0.004916
-0.003856
-0.005878
-0.005906
-0.005944
-0.005925
-0.005959
-0.005966
-0.006014
-0.006044
-0.006111
-0.006167
-0.006188
-0.006198
-0.006173
-0.006246
0.000000
0.000000
0.002351
0.013153
0.036258
0.069958
0.106131
0.133221
0.143430
0.139338
0.117310
0.078022
0.029254
-0.019063
-0.057673
-0.080749
-0.088551
-0.087314
-0.078885
-0.064252
-0.047104
-0.030954
-0.017966
-0.008720
-0.002740
0.000716
0.002284
0.002467
0.002154
0.001146
-0.000282
-0.001850
-0.003212
-0.004231
-0.004895
-0.005267
-0.005493
-0.005574
-0.008474
-0.006517
-0.008178
-0.008003
-0.007157
-0.006857
-0.006233
-0.004515
0.000000
0.000000
0.000000
0.000000
0.130505
0.137314
0.140662
0.143413
0.131038
0.079642
0.017891
-0.038394
-0.076531
-0.079408
-0.074456
-0.069548
-0.063964
-0.059418
-0.054634
-0.040930
-0.023297
-0.006785
0.004330
0.005926
-0.001358
-0.007123
-0.009693
-0.012893
-0.015017
-0.013711
-0.010769
-0.008980
-0.008886
-0.008231
-0.006692
-0.004982
-0.003643
-0.004275
-0.005137
-0.006096
-0.005592
-0.005574
-0.005592
-0.005600
-0.005632
-0.005651
-0.005634
-0.005573
-0.005489
-0.005579
0.000000
0.000000
0.000438
0.006066
0.022568
0.051659
0.088582
0.122761
0.143417
0.147274
0.135312
0.104414
0.058954
0.008731
-0.036112
-0.068265
-0.084941
-0.088477
-0.085142
-0.075419
-0.060800
-0.044517
-0.029499
-0.017396
-0.008618
-0.002819
0.000592
0.002109
0.002445
0.002066
0.001201
-0.000097
-0.001510
-0.002787
-0.003791
-0.004448
-0.004861
-0.005039
-0.005140
-0.005151
-0.005185
-0.005183
-0.008928
-0.009042
-0.011315
-0.013159
-0.006459
0.016384
0.047270
0.084152
0.117893
0.137459
0.137156
0.122119
0.097931
0.074219
0.042465
0.026917
0.000000
0.000000
0.000000
0.000000
-0.062810
-0.054765
-0.061974
-0.059630
-0.042929
-0.024062
-0.008811
0.000933
0.001516
-0.005202
-0.008829
-0.010934
-0.013489
-0.016112
-0.015835
-0.013749
-0.011229
-0.010408
-0.010354
-0.007517
-0.005415
-0.003511
-0.003707
-0.004324
-0.005294
-0.007541
-0.012208
-0.008853
-0.005138
-0.005103
-0.005046
-0.004946
-0.004819
-0.004880
0.000000
0.000000
0.000000
0.001913
0.011839
0.034214
0.068182
0.106030
0.136181
0.150506
0.148096
0.127270
0.088904
0.040451
-0.008493
-0.049036
-0.075436
-0.086636
-0.087651
-0.083324
-0.072976
-0.058591
-0.043057
-0.028797
-0.017196
-0.008663
-0.002914
0.000441
0.002001
0.002242
0.002025
0.001249
0.000067
-0.001214
-0.002408
-0.003312
-0.003944
-0.004278
-0.004483
-0.004586
-0.004682
-0.004716
-0.004715
-0.004666
-0.004606
-0.004535
-0.011887
0.001434
0.028247
0.064152
0.101738
0.131288
0.142826
0.143716
0.145453
0.141552
0.101907
0.044463
-0.013509
-0.060107
-0.077689
-0.075281
-0.068856
-0.059484
-0.042412
-0.026602
-0.016091
-0.012416
-0.006269
-0.004212
0.000000
0.000000
0.000000
0.000000
-0.012133
-0.011945
-0.012821
-0.013024
-0.011566
-0.010492
-0.009965
-0.009288
-0.007667
-0.005143
-0.003470
-0.003712
-0.003837
-0.004238
-0.004919
-0.005813
-0.005427
0.003634
0.032988
0.053976
-0.004174
-0.004200
0.000000
0.000000
0.000000
0.000212
0.004720
0.019557
0.047408
0.084632
0.121474
0.146753
0.153500
0.145084
0.117989
0.074899
0.024599
-0.022304
-0.058088
-0.079365
-0.087398
-0.087138
-0.081667
-0.071290
-0.057592
-0.042852
-0.029144
-0.017787
-0.009174
-0.003277
0.000330
0.001988
0.002260
0.002006
0.001284
0.000277
-0.000876
-0.001929
-0.002793
-0.003351
-0.003727
-0.003954
-0.004117
-0.004182
-0.004166
-0.004096
-0.004018
-0.003936
-0.003848
-0.003722
-0.003539
-0.003541
0.081249
0.103391
0.139355
0.144889
0.147298
0.149234
0.136374
0.090075
0.032805
-0.020272
-0.061560
-0.074187
-0.070936
-0.063457
-0.056946
-0.052760
-0.051034
-0.047105
-0.033566
-0.018951
-0.007787
-0.001595
-0.002959
-0.008872
-0.010957
-0.011635
-0.008963
-0.003732
-0.001637
-0.003651
-0.005069
-0.005299
0.000000
0.000000
0.000000
0.000000
-0.003336
-0.001342
-0.000945
-0.001285
-0.002798
-0.004458
-0.003946
-0.000325
0.008627
0.031128
0.102262
0.118266
0.000000
0.000000
0.001092
0.008998
0.028851
0.061254
0.100130
0.134182
0.152958
0.155169
0.141150
0.107490
0.060800
0.011274
-0.032169
-0.063591
-0.081054
-0.086537
-0.086037
-0.080410
-0.070500
-0.057592
-0.043563
-0.030340
-0.019013
-0.010171
-0.003805
0.000140
0.001940
0.002254
0.002069
0.001519
0.000604
-0.000426
-0.001425
-0.002203
-0.002793
-0.003189
-0.003441
-0.003549
-0.003548
-0.003488
-0.003419
-0.003344
-0.003257
-0.003117
-0.002900
-0.002873
0.000000
0.000000
0.000000
0.000000
0.115666
0.117754
0.142376
0.121270
0.076584
0.022105
-0.027295
-0.065219
-0.073169
-0.068473
-0.060623
-0.055063
-0.049577
-0.045558
-0.042138
-0.031351
-0.019316
-0.009864
-0.004403
-0.004721
-0.010331
-0.011568
-0.013148
-0.014592
-0.015615
-0.015711
-0.014390
-0.011798
-0.009358
-0.006719
-0.004084
-0.001871
-0.001285
-0.001050
-0.001040
-0.000796
-0.001345
-0.001122
-0.001842
-0.002798
0.000000
0.000000
0.000000
0.000000
0.028444
0.038827
0.090173
0.068629
0.014553
0.039098
0.074893
0.113664
0.143796
0.157847
0.155327
0.134714
0.097107
0.049538
0.001539
-0.038606
-0.066455
-0.081465
-0.085915
-0.085354
-0.080088
-0.070940
-0.058762
-0.045435
-0.032507
-0.021009
-0.011582
-0.004714
-0.000399
0.001771
0.002385
0.002365
0.001872
0.001129
0.000201
-0.000703
-0.001502
-0.002112
-0.002529
-0.002757
-0.002835
-0.002817
-0.002762
-0.002699
-0.002630
-0.002497
-0.002264
-0.002234
0.000000
0.000000
0.000000
0.000000
0.000000
0.000350
0.005426
0.021037
0.047243
0.007688
-0.006125
-0.049557
-0.069309
-0.068720
-0.063089
-0.056716
-0.050576
-0.044336
-0.039319
-0.037391
-0.030282
-0.020649
-0.012697
-0.007624
-0.006452
-0.011383
-0.012244
-0.013383
-0.014364
-0.014900
-0.014893
-0.013390
-0.010661
-0.008374
-0.006039
-0.003527
-0.001186
-0.000367
0.000436
0.001162
0.000601
0.000231
-0.000897
-0.001933
-0.002967
-0.004258
-0.005020
-0.005773
-0.005701
-0.002494
0.008653
0.029401
0.052309
0.070331
0.028939
0.017642
0.125128
0.150886
0.157843
0.152931
0.128796
0.088417
0.040866
-0.004723
-0.041607
-0.066795
-0.080531
-0.084954
-0.084685
-0.080261
-0.072112
-0.061128
-0.048583
-0.035699
-0.023876
-0.014066
-0.006563
-0.001352
0.001534
0.002599
0.002696
0.002450
0.001858
0.001055
0.000200
-0.000564
-0.001171
-0.001599
-0.001861
-0.001966
-0.001972
-0.001949
-0.001918
-0.001819
-0.001627
-0.001525
0.000000
0.000000
0.000000
0.000000
0.000000
0.000000
0.001090
0.008747
0.027989
0.059743
0.098596
0.133967
0.040191
0.022629
0.000000
0.000000
0.000000
0.000000
0.000000
0.000000
0.000000
0.000000
0.000000
0.000000
0.000000
0.000000
0.000000
0.000000
0.000000
0.000000
0.000000
0.000000
0.000000
0.000000
0.000000
0.000000
0.000000
0.000000
0.000000
0.000000
0.000000
0.000000
0.000000
0.000000
0.000000
0.000000
0.000000
0.000000
0.000000
0.000000
0.000000
0.000000
0.000000
0.000000
0.000000
0.000000
0.000000
0.000000
0.000000
0.000000
0.150394
0.122741
0.081433
0.035089
-0.007799
-0.041912
-0.065283
-0.078541
-0.083437
-0.083568
-0.080602
-0.074174
-0.064295
-0.052427
-0.040123
-0.028301
-0.017826
-0.009313
-0.003199
0.000610
0.002411
0.002894
0.002958
0.002636
0.002065
0.001376
0.000659
0.000016
-0.000453
-0.000721
-0.000863
-0.000962
-0.001028
-0.001016
-0.000920
-0.000820
0.000000
0.000000
0.000000
0.000000
0.000000
0.000000
0.000000
0.002265
0.012506
0.034903
0.068885
0.107738
0.140742
0.158410
0.160399
0.147892
0.000000
0.000000
0.000000
0.000000
0.000000
0.000000
0.000000
0.000000
0.000000
0.000000
0.000000
0.000000
0.000000
0.000000
0.000000
0.000000
0.000000
0.000000
0.000000
0.000000
0.000000
0.000000
0.000000
0.000000
0.000000
0.000000
0.000000
0.000000
0.000000
0.000000
0.000000
0.000000
0.000000
0.000000
0.000000
0.000000
0.000000
0.000000
0.000000
0.000000
0.000000
0.000000
0.000000
0.000000
0.000000
0.000000
0.000000
0.000000
0.032964
-0.007349
-0.039331
-0.061730
-0.075261
-0.081549
-0.082982
-0.081073
-0.075918
-0.067879
-0.057503
-0.045706
-0.033913
-0.023067
-0.013849
-0.006575
-0.001505
0.001531
0.002896
0.003230
0.003302
0.002992
0.002436
0.001820
0.001267
0.000853
0.000538
0.000263
0.000040
-0.000100
-0.000174
-0.000233
0.000000
0.000000
0.000000
0.000000
0.000000
0.000000
0.000000
0.000124
0.003733
0.016377
0.041264
0.076587
0.114746
0.145121
0.160055
0.159824
0.145174
0.115507
0.075986
0.034004
0.000000
0.000000
0.000000
0.000000
0.000000
0.000000
0.000000
0.000000
0.000000
0.000000
0.000000
0.000000
0.000000
0.000000
0.000000
0.000000
0.000000
0.000000
0.000000
0.000000
0.000000
0.000000
0.000000
0.000000
0.000000
0.000000
0.000000
0.000000
0.000000
0.000000
0.000000
0.000000
0.000000
0.000000
0.000000
0.000000
0.000000
0.000000
0.000000
0.000000
0.000000
0.000000
0.000000
0.000000
0.000000
0.000000
0.000000
0.000000
-0.056093
-0.070419
-0.078377
-0.081189
-0.080907
-0.077649
-0.071443
-0.062482
-0.052023
-0.041006
-0.030169
-0.020212
-0.011874
-0.005489
-0.001121
0.001531
0.002926
0.003422
0.003233
0.002990
0.002657
0.002270
0.001874
0.001455
0.001062
0.000725
0.000451
0.000134
0.000000
0.000000
0.000000
0.000000
0.000000
0.000000
0.000000
0.000000
0.000413
0.005354
0.019994
0.046647
0.082515
0.119519
0.147544
0.160358
0.158746
0.143210
0.114329
0.076931
0.037690
0.002266
-0.026516
-0.048232
0.000000
0.000000
0.000000
0.000000
0.000000
0.000000
0.000000
0.000000
0.000000
0.000000
0.000000
0.000000
0.000000
0.000000
0.000000
0.000000
0.000000
0.000000
0.000000
0.000000
0.000000
0.000000
0.000000
0.000000
0.000000
0.000000
0.000000
0.000000
0.000000
0.000000
0.000000
0.000000
0.000000
0.000000
0.000000
0.000000
0.000000
0.000000
0.000000
0.000000
0.000000
0.000000
0.000000
0.000000
0.000000
0.000000
0.000000
0.000000
-0.078812
-0.079869
-0.078100
-0.073751
-0.067208
-0.058652
-0.048773
-0.038379
-0.028384
-0.019476
-0.012090
-0.006328
-0.002183
0.000466
0.001920
0.002585
0.002818
0.002753
0.002428
0.002011
0.001585
0.001162
0.000747
0.000115
0.000000
0.000000
0.000000
0.000000
0.000000
0.000000
0.000000
0.000000
0.000000
0.000782
0.006923
0.023037
0.050713
0.086461
0.122108
0.148209
0.159045
0.157368
0.142166
0.114897
0.080005
0.043703
0.010928
-0.016388
-0.038107
-0.054769
-0.066600
-0.073817
0.000000
0.000000
0.000000
0.000000
0.000000
0.000000
0.000000
0.000000
0.000000
0.000000
0.000000
0.000000
0.000000
0.000000
0.000000
0.000000
0.000000
0.000000
0.000000
0.000000
0.000000
0.000000
0.000000
0.000000
0.000000
0.000000
0.000000
0.000000
0.000000
0.000000
0.000000
0.000000
0.000000
0.000000
0.000000
0.000000
0.000000
0.000000
0.000000
0.000000
0.000000
0.000000
0.000000
0.000000
0.000000
0.000000
0.000000
0.000000
-0.074676
-0.070415
-0.064059
-0.056047
-0.047007
-0.037694
-0.028791
-0.020773
-0.014057
-0.008810
-0.004939
-0.002263
-0.000500
0.000561
0.001055
0.001203
0.001099
0.000810
0.000372
-0.000361
0.000000
0.000000
0.000000
0.000000
0.000000
0.000000
0.000000
0.000000
0.000000
0.000000
0.001178
0.008214
0.025235
0.053218
0.088315
0.122558
0.147260
0.157043
0.155800
0.141847
0.116857
0.084975
0.052108
0.021848
-0.004268
-0.025970
-0.043315
-0.056552
-0.066070
-0.071884
-0.074031
-0.073302
0.000000