# vtk DataFile Version 3.0
Created by write_to_vtk2d
ASCII
DATASET STRUCTURED_POINTS
DIMENSIONS 100 100 1
SPACING 1.000000 1.000000 0.0
ORIGIN 0.000000 0.000000 0.0
POINT_DATA 10000
SCALARS p float 1
LOOKUP_TABLE p_table
0.000000
0.000000
0.091698
0.089759
0.085031
0.072107
0.049500
0.013010
-0.016498
-0.025201
-0.012854
-0.000458
0.000000
0.000000
0.000000
0.000000
-0.013673
-0.017921
-0.019774
-0.019695
-0.019573
-0.021049
-0.023872
-0.026913
-0.028842
-0.029984
-0.031743
-0.029928
-0.024526
-0.022843
-0.020681
-0.017805
-0.015073
-0.013036
-0.012875
-0.008117
-0.013759
-0.015071
-0.017041
-0.019403
-0.022246
-0.028742
-0.031345
-0.032484
-0.033034
-0.033395
-0.035817
-0.031213
0.000021
0.001904
0.008564
0.020882
0.036640
0.051860
0.063543
0.071065
0.075117
0.075131
0.069032
0.050109
0.020188
-0.010785
-0.030897
-0.035368
-0.029536
-0.017256
-0.006084
-0.001094
-0.001461
-0.003933
-0.006759
-0.008872
-0.010387
-0.011703
-0.012979
-0.014222
-0.015428
-0.016594
-0.017782
-0.019100
-0.019519
-0.020309
-0.021507
-0.023723
-0.025352
-0.026816
-0.028080
-0.029344
-0.029788
-0.037618
0.000000
0.000000
0.000000
0.000000
0.000000
0.000000
0.000000
0.000000
0.000000
0.002108
0.009842
0.024309
0.076416
0.010845
-0.031461
-0.044337
-0.046166
-0.035313
-0.016065
-0.004895
-0.002953
-0.007006
-0.012544
-0.015272
-0.014372
-0.011767
-0.009898
-0.010322
-0.007982
-0.010108
0.000000
0.000000
0.000000
0.000000
-0.023303
-0.019245
-0.017917
-0.015479
-0.014290
-0.012822
-0.012244
-0.010351
-0.016883
-0.016606
-0.019156
-0.020736
-0.020268
-0.023798
-0.026537
-0.028306
-0.030058
-0.030478
-0.025547
-0.008397
0.025461
0.045656
0.055649
0.046331
0.042696
0.059929
0.072043
0.078329
0.080206
0.078622
0.069317
0.045598
0.010349
-0.024499
-0.044906
-0.047569
-0.037557
-0.019903
-0.005035
0.001406
0.001005
-0.002078
-0.005634
-0.008259
-0.009964
-0.011277
-0.012499
-0.013625
-0.014701
-0.015780
-0.016820
-0.017870
-0.018793
-0.019566
-0.020433
-0.022078
-0.023803
-0.025461
-0.026913
-0.028328
-0.029550
-0.035700
0.000000
0.000000
0.000000
0.000000
0.000000
0.000000
0.000000
0.000000
0.000000
0.002062
0.010411
0.026502
0.047355
0.066970
0.080077
0.085615
-0.035841
-0.015054
-0.006526
0.002474
0.000909
-0.006701
-0.015625
-0.022517
-0.020783
-0.017022
-0.014983
-0.017792
-0.019555
-0.021271
-0.021885
-0.020448
-0.019123
-0.017125
-0.012621
-0.010959
-0.008553
-0.005672
-0.003468
-0.002169
-0.002401
0.000569
0.000000
0.000000
0.000000
0.000000
-0.030582
-0.028501
-0.029811
-0.030703
-0.031378
-0.028406
-0.018646
0.002344
0.045771
0.076143
0.091072
0.095531
0.091802
0.085940
0.080735
0.077498
0.085748
0.082765
0.070428
0.043101
0.003930
-0.034593
-0.056922
-0.058953
-0.046192
-0.024452
-0.005661
0.002944
0.003145
-0.000033
-0.004086
-0.007278
-0.009405
-0.010928
-0.012206
-0.013279
-0.014236
-0.015223
-0.016269
-0.017387
-0.018364
-0.019404
-0.020202
-0.021163
-0.022394
-0.023931
-0.025263
-0.026745
-0.027885
-0.033815
0.000000
0.000000
0.000000
0.000000
0.000000
0.000000
0.000000
0.000000
0.000000
0.001777
0.010186
0.027416
0.050580
0.072739
0.087485
0.092996
0.092104
0.087549
0.072535
0.042483
-0.010548
0.006255
0.004447
-0.001711
-0.007366
-0.009249
-0.014407
-0.015639
-0.021082
-0.022898
-0.024404
-0.023212
-0.021219
-0.018317
-0.016463
-0.015760
-0.014977
-0.012764
-0.011488
-0.010786
-0.012407
-0.011396
-0.018706
-0.018580
-0.023159
-0.023324
-0.018433
-0.022363
-0.026478
-0.027836
-0.029285
-0.030788
-0.026733
-0.023797
0.000000
0.000000
0.000000
0.000000
0.119981
0.108731
0.098652
0.081506
0.047576
0.006156
-0.018142
-0.028532
0.000261
-0.041685
-0.066559
-0.069526
-0.055854
-0.030966
-0.008276
0.003267
0.004725
0.001931
-0.002343
-0.006050
-0.008657
-0.010485
-0.011896
-0.012973
-0.013806
-0.014579
-0.015438
-0.016513
-0.017822
-0.018901
-0.019926
-0.020434
-0.021118
-0.022502
-0.024023
-0.025691
-0.026470
-0.032015
0.000000
0.000000
0.000000
0.000000
0.000000
0.000000
0.000000
0.000000
0.000000
0.001320
0.009241
0.026914
0.051982
0.077016
0.094225
0.100523
0.099289
0.093044
0.075958
0.043965
-0.000558
-0.045497
-0.073892
-0.079195
-0.055216
-0.037473
-0.020908
-0.014484
-0.007826
-0.007496
-0.010684
-0.012716
-0.016135
-0.018080
-0.017471
-0.018275
-0.017034
-0.015626
-0.014261
-0.013289
-0.013498
-0.013619
-0.019035
-0.019887
-0.025086
-0.024577
-0.018252
-0.020209
-0.023855
-0.025429
-0.027607
-0.024721
-0.010735
0.009885
0.047189
0.078766
0.104755
0.116163
0.115277
0.109152
0.092355
0.067683
0.035868
-0.006025
-0.033945
-0.031276
0.000000
0.000000
0.000000
0.000000
-0.066101
-0.039710
-0.013504
0.001876
0.004989
0.003329
-0.000534
-0.004415
-0.007386
-0.009599
-0.011315
-0.012591
-0.013478
-0.014223
-0.015015
-0.016109
-0.017639
-0.019155
-0.019700
-0.019428
-0.019571
-0.020675
-0.022087
-0.023764
-0.024734
-0.030236
0.000000
0.000000
0.000000
0.000000
0.000000
0.000000
0.000000
0.000000
0.000000
0.000808
0.007775
0.025054
0.051377
0.079445
0.099920
0.108045
0.106913
0.099491
0.080917
0.047578
0.001436
-0.046191
-0.078856
-0.087076
-0.076202
-0.050277
-0.021513
-0.002033
-0.010100
-0.026685
-0.031298
-0.029805
-0.024814
-0.018513
-0.014164
-0.012440
-0.008459
-0.008153
-0.008666
-0.010441
-0.013256
-0.013314
-0.019282
-0.020130
-0.024953
-0.023393
-0.017080
-0.016974
-0.017867
-0.019951
-0.023151
-0.023724
-0.011322
0.008744
0.045079
0.079307
0.109857
0.125554
0.128864
0.133578
0.135148
0.116224
0.060793
-0.009947
-0.069005
-0.085926
-0.082157
-0.073127
-0.058927
-0.033431
-0.014298
-0.007820
-0.007190
-0.005978
0.004730
0.004009
0.001078
-0.002417
-0.005475
-0.008010
-0.010125
-0.011762
-0.012875
-0.013736
-0.014428
-0.015265
-0.016980
-0.018535
-0.019205
-0.019499
-0.019730
-0.020033
-0.020594
-0.021671
-0.022370
-0.028480
0.000000
0.000000
0.000000
0.000000
0.000000
0.000000
0.000000
0.000000
0.000000
0.000362
0.005935
0.022094
0.048967
0.079749
0.104197
0.115183
0.114762
0.107093
0.087495
0.053295
0.006122
-0.043774
-0.080563
-0.091867
-0.086069
-0.061987
-0.031923
-0.008561
0.002273
0.003661
0.002035
-0.000646
-0.003845
-0.006261
-0.010526
-0.017916
0.000000
0.000000
0.000000
0.000000
-0.016076
-0.013607
-0.019432
-0.020022
-0.025109
-0.025175
-0.020097
-0.022492
-0.023927
-0.025126
-0.025429
-0.024534
-0.017042
0.002510
0.039895
0.075874
0.110651
0.131203
0.138619
0.148394
0.153693
0.132547
0.076132
0.003368
-0.061978
-0.088975
-0.090669
-0.091400
-0.084363
-0.056290
-0.029587
-0.016517
-0.012454
-0.009004
-0.003099
0.001389
-0.003063
-0.007949
-0.003457
-0.006180
-0.008753
-0.010919
-0.012456
-0.013427
-0.014111
-0.014700
-0.016063
-0.017058
-0.018393
-0.018823
-0.018903
-0.019115
-0.019385
-0.020135
-0.020684
-0.026481
0.000000
0.000000
0.000000
0.000000
0.000000
0.000000
0.000000
0.000000
0.000000
0.000033
0.004001
0.018231
0.044583
0.077594
0.106388
0.121812
0.123144
0.115643
0.095808
0.061291
0.013683
-0.038323
-0.079552
-0.098171
-0.094736
-0.074196
-0.044184
-0.017488
-0.002060
0.002596
0.002229
0.000518
-0.001556
-0.003977
-0.006707
-0.009352
-0.024534
-0.022805
-0.021889
-0.021325
-0.021370
-0.018601
-0.022432
-0.019937
-0.023073
-0.023335
-0.018238
-0.016476
0.000000
0.000000
0.000000
0.000000
-0.018197
0.003392
0.035662
0.071729
0.110582
0.137396
0.149305
0.162733
0.170148
0.151040
0.096989
0.023146
-0.048490
-0.089622
-0.093845
-0.096475
-0.096056
-0.075374
-0.047603
-0.029212
-0.020578
-0.013855
-0.005183
0.002628
0.000239
-0.005632
-0.009980
-0.011057
-0.010955
-0.011628
-0.011452
-0.012819
-0.013574
-0.013979
-0.014763
-0.015848
-0.017130
-0.018109
-0.018698
-0.018881
-0.018824
-0.019099
-0.019060
-0.024161
0.000000
0.000000
0.000000
0.000000
0.000000
0.000000
0.000000
0.000000
0.000000
0.000000
0.002234
0.013837
0.038588
0.072779
0.105874
0.126894
0.130845
0.125058
0.105738
0.071524
0.023909
-0.029703
-0.075391
-0.099546
-0.101191
-0.085495
-0.057388
-0.028934
-0.009229
-0.000305
0.001205
0.000815
-0.000319
-0.002002
-0.004373
-0.007151
-0.009735
-0.011707
-0.012922
-0.013494
-0.016807
-0.013417
-0.017793
-0.017201
-0.021061
-0.022939
-0.021225
-0.019571
-0.020606
-0.020886
-0.019893
-0.018468
-0.015634
-0.001171
0.028190
0.060202
0.095619
0.117888
0.118630
0.114389
0.000000
0.000000
0.000000
0.000000
-0.016106
-0.088620
-0.098351
-0.101039
-0.104787
-0.094361
-0.067568
-0.044776
-0.031218
-0.021279
-0.010680
-0.000260
0.001814
-0.003189
-0.009226
-0.012292
-0.012121
-0.011718
-0.012304
-0.012168
-0.010147
-0.009043
-0.014105
-0.014791
-0.015839
-0.016900
-0.017782
-0.018023
-0.018099
-0.018299
-0.018031
-0.022550
0.000000
0.000000
0.000000
0.000000
0.000000
0.000000
0.000000
0.000000
0.000000
0.000000
0.000907
0.009429
0.031277
0.065363
0.102342
0.129433
0.139318
0.135018
0.117326
0.083934
0.036751
-0.017816
-0.067316
-0.098228
-0.105270
-0.095280
-0.071175
-0.042310
-0.019085
-0.005880
-0.000888
0.000069
-0.000165
-0.000858
-0.002314
-0.004624
-0.007320
-0.009847
-0.011693
-0.012686
-0.013455
-0.013841
-0.014634
-0.015481
-0.020304
-0.021259
-0.021606
-0.020998
-0.019838
-0.022824
-0.023795
-0.022370
-0.016056
-0.006533
0.021505
0.050366
0.091888
0.131351
0.154755
0.160134
0.162568
0.159019
0.126641
0.058661
-0.018191
-0.079268
-0.097765
-0.091551
-0.069039
-0.040191
-0.021548
-0.022539
0.000000
0.000000
0.000000
0.000000
-0.000202
-0.000935
-0.006715
-0.011908
-0.016412
-0.018850
-0.018426
-0.016258
-0.014428
-0.012637
-0.011042
-0.010960
-0.009585
-0.008572
-0.016345
-0.016814
-0.017080
-0.017448
-0.017565
-0.021589
0.000000
0.000000
0.000000
0.000000
0.000000
0.000000
0.000000
0.000000
0.000000
0.000000
0.000157
0.005485
0.023362
0.055603
0.095030
0.128636
0.145465
0.144943
0.130104
0.098544
0.052371
-0.002514
-0.055387
-0.092796
-0.106708
-0.103221
-0.084437
-0.056944
-0.031410
-0.014107
-0.005300
-0.001903
-0.000832
-0.000652
-0.001071
-0.002406
-0.004626
-0.007257
-0.009648
-0.011360
-0.012494
-0.013142
-0.013915
-0.014480
-0.015192
-0.015696
-0.016131
-0.016635
-0.025825
-0.023237
-0.021711
-0.019114
-0.016559
-0.011178
0.015436
0.039998
0.079596
0.123336
0.155485
0.170392
0.186037
0.194042
0.166469
0.101318
0.021841
-0.050985
-0.096099
-0.097112
-0.098415
-0.100803
-0.095510
-0.072853
-0.050918
-0.034127
-0.019309
-0.005025
0.005568
0.003306
-0.003784
-0.008084
-0.006686
-0.004385
-0.006071
-0.009283
0.000000
0.000000
0.000000
0.000000
-0.019755
-0.017716
-0.017703
-0.013590
-0.015663
-0.017523
-0.016248
-0.019905
0.000000
0.000000
0.000000
0.000000
0.000000
0.000000
0.000000
0.000000
0.000000
0.000000
0.000000
0.002493
0.015647
0.044174
0.084224
0.123532
0.148851
0.153692
0.143554
0.115335
0.070815
0.016031
-0.039572
-0.083795
-0.106354
-0.108378
-0.096048
-0.072153
-0.045925
-0.024995
-0.012088
-0.005589
-0.002607
-0.001217
-0.000860
-0.001258
-0.002668
-0.004863
-0.007297
-0.009419
-0.010953
-0.011889
-0.012735
-0.013329
-0.013975
-0.014478
-0.014898
-0.015386
-0.014987
-0.018315
0.000000
0.000000
-0.017767
-0.012247
0.007745
0.028646
0.063484
0.108602
0.148253
0.169482
0.178878
0.190211
0.184046
0.130728
0.053574
-0.024593
-0.084180
-0.099526
-0.096995
-0.096887
-0.097303
-0.088695
-0.069126
-0.050160
-0.032854
-0.016529
-0.002436
0.004360
-0.002116
-0.008859
-0.014677
-0.018669
-0.020563
-0.018919
-0.016016
-0.014365
-0.012772
-0.012193
-0.011264
-0.010613
-0.009904
-0.006160
-0.008094
-0.008277
-0.008248
-0.010327
0.000000
0.000000
0.000000
0.000000
0.000000
0.000000
0.000000
0.000000
0.000000
0.000000
0.000000
0.000686
0.008985
0.032134
0.070204
0.113588
0.147360
0.161675
0.156693
0.133534
0.091852
0.037523
-0.020282
-0.070129
-0.101467
-0.109829
-0.104882
-0.086676
-0.061918
-0.038647
-0.021739
-0.011543
-0.005911
-0.002771
-0.001126
-0.000760
-0.001273
-0.002707
-0.004796
-0.007097
-0.009094
-0.010435
-0.011494
-0.012116
-0.012784
-0.013225
-0.013640
-0.014108
-0.013737
-0.016727
0.000000
0.000000
0.000000
0.000000
0.000000
0.000000
0.000000
0.000000
0.138484
0.167943
0.179478
0.188657
0.191704
0.159434
0.089378
0.007882
-0.062742
-0.099290
-0.098803
-0.097326
-0.095829
-0.093471
-0.083488
-0.065742
-0.046470
-0.027543
-0.010648
0.001481
0.000737
-0.006665
-0.012524
-0.017623
-0.019772
-0.017783
-0.014432
-0.013536
-0.012637
-0.012249
-0.011464
-0.010478
-0.010659
-0.006414
-0.006963
-0.009089
-0.009261
-0.010945
-0.012929
-0.014779
-0.015349
-0.016803
-0.015570
-0.011528
0.000000
0.000000
0.000000
0.000000
0.000000
0.000000
0.004021
0.020759
0.054135
0.098689
0.140393
0.164292
0.167237
0.151721
0.114949
0.062259
0.003207
-0.051202
-0.090570
-0.109112
-0.109926
-0.098578
-0.077844
-0.054641
-0.034716
-0.020633
-0.011766
-0.006382
-0.003083
-0.001400
-0.000924
-0.001333
-0.002587
-0.004566
-0.006739
-0.008457
-0.009829
-0.010655
-0.011418
-0.011850
-0.012283
-0.012729
-0.012429
-0.015101
0.000000
0.000000
0.000000
0.000000
0.000000
0.000000
0.000000
0.000000
0.000000
0.000000
0.171293
0.165409
0.137031
0.103836
0.078559
0.061823
0.000000
0.000000
0.000000
0.000000
-0.087542
-0.083444
-0.089448
-0.080915
-0.063600
-0.043228
-0.023460
-0.006864
0.002122
-0.002711
-0.010195
-0.014321
-0.017119
-0.015644
-0.011915
-0.010449
-0.010142
-0.009927
-0.009164
-0.007956
-0.008129
-0.003748
-0.004653
-0.006256
-0.007898
-0.010342
-0.012777
-0.013799
-0.013891
-0.015102
-0.014187
-0.013361
-0.014380
-0.011413
-0.012200
-0.000471
0.000000
0.000000
0.001115
0.011326
0.037742
0.079778
0.126646
0.161846
0.174018
0.167749
0.139031
0.090454
0.031794
-0.026401
-0.073702
-0.102266
-0.110044
-0.106439
-0.092367
-0.071704
-0.050434
-0.032854
-0.020239
-0.011925
-0.006517
-0.003231
-0.001521
-0.001137
-0.001527
-0.002794
-0.004654
-0.006404
-0.007950
-0.008998
-0.009884
-0.010459
-0.010858
-0.011280
-0.011059
-0.013401
0.000000
0.000000
0.000000
0.000000
0.000000
0.000000
0.000000
0.000000
0.000000
0.000000
0.000000
0.000000
0.000000
0.004679
0.169967
0.088779
0.011034
-0.057026
-0.097142
-0.096423
-0.093702
-0.086873
-0.067340
-0.045420
-0.028775
-0.021114
-0.014370
-0.010244
0.000000
0.000000
0.000000
0.000000
-0.016554
-0.015651
-0.014439
-0.012749
-0.011209
-0.010572
-0.010415
-0.009775
-0.010261
-0.006224
-0.006428
-0.007388
-0.008256
-0.010606
-0.013953
-0.016370
-0.017162
-0.017035
-0.017475
-0.019301
-0.021109
-0.021339
-0.020011
-0.014630
-0.007289
0.010538
0.041691
0.071634
0.022957
0.058882
0.106676
0.151178
0.176366
0.179561
0.161872
0.121275
0.065219
0.004395
-0.050128
-0.089027
-0.107340
-0.109719
-0.103106
-0.087830
-0.068183
-0.048879
-0.032776
-0.020751
-0.012197
-0.006432
-0.002845
-0.001214
-0.001017
-0.001504
-0.002711
-0.004210
-0.005851
-0.007185
-0.008265
-0.008921
-0.009333
-0.009765
-0.009681
-0.011872
0.000000
0.000000
0.000000
0.000000
0.000000
0.000000
0.000000
0.000000
0.000000
0.000000
0.000000
0.000000
0.000000
0.001109
0.011431
0.038536
0.082384
0.132247
-0.021629
-0.090724
-0.092529
-0.090539
-0.086204
-0.080933
-0.076002
-0.068813
-0.049430
-0.029444
-0.012908
-0.002575
-0.001326
-0.009931
-0.014502
-0.016319
-0.013295
-0.005657
-0.002094
-0.002403
-0.003224
-0.004550
0.000000
0.000000
0.000000
0.000000
-0.008951
-0.007646
-0.009120
-0.010586
-0.014165
-0.017846
-0.020898
-0.023980
-0.026552
-0.026302
-0.024035
-0.020760
-0.020980
-0.010018
0.024235
0.080439
0.135002
0.162470
0.163633
0.129168
0.170724
0.185847
0.180294
0.151358
0.101133
0.040374
-0.019007
-0.066844
-0.096856
-0.108787
-0.108219
-0.099707
-0.085053
-0.067234
-0.049540
-0.034271
-0.022097
-0.012966
-0.006426
-0.002475
-0.000845
-0.000598
-0.000984
-0.001899
-0.003425
-0.004989
-0.006339
-0.007232
-0.007759
-0.008243
-0.008310
-0.010564
0.000000
0.000000
0.000000
0.000000
0.000000
0.000000
0.000000
0.000000
0.000000
0.000000
0.000000
0.000000
0.000000
0.000000
0.004040
0.021338
0.056914
0.106132
0.154267
0.185440
0.192244
0.175950
-0.043642
-0.029895
-0.037361
-0.060941
-0.065824
-0.052225
-0.035330
-0.019608
-0.010095
-0.006108
-0.012629
-0.015406
-0.016027
-0.014827
-0.013455
-0.013118
-0.013248
-0.012323
-0.011885
-0.007733
-0.007588
-0.008353
-0.008149
-0.008404
-0.008915
-0.009097
-0.009306
-0.010167
-0.010650
-0.014429
0.000000
0.000000
0.000000
0.000000
0.000007
0.000013
0.014170
0.053521
0.109231
0.156829
0.183528
0.183266
0.161592
0.133462
0.118673
0.074654
0.136348
0.080321
0.019401
-0.035554
-0.076579
-0.099975
-0.106897
-0.106207
-0.098154
-0.084794
-0.068489
-0.052046
-0.037142
-0.024499
-0.014320
-0.007008
-0.002639
-0.000503
0.000154
-0.000007
-0.001009
-0.002401
-0.003826
-0.004994
-0.005846
-0.006551
-0.007016
-0.009517
0.000000
0.000000
0.000000
0.000000
0.000000
0.000000
0.000000
0.000000
0.000000
0.000000
0.000000
0.000000
0.000000
0.000000
0.000666
0.009134
0.033834
0.076483
0.128130
0.172238
0.194651
0.192918
0.168571
0.122606
0.063980
0.004599
-0.070720
0.002977
0.007211
-0.004009
-0.006704
-0.009004
-0.011285
-0.013473
-0.016667
-0.018347
-0.018359
-0.015345
-0.012859
-0.012255
-0.012788
-0.009212
-0.010162
-0.012012
-0.011582
-0.010813
-0.011008
-0.012304
-0.014573
-0.017422
-0.019870
-0.021779
-0.023425
-0.023411
-0.023997
-0.021240
-0.015534
-0.008430
0.002686
0.029851
0.072507
0.118352
0.146177
0.153463
0.000000
0.000000
0.000000
0.000000
0.064594
-0.000002
-0.027296
-0.044283
-0.045447
-0.080603
-0.099879
-0.105555
-0.104910
-0.098075
-0.086524
-0.072293
-0.057014
-0.041989
-0.028612
-0.017708
-0.009451
-0.003647
-0.000405
0.000714
0.000590
-0.000085
-0.001196
-0.002474
-0.003710
-0.004887
-0.005871
-0.008760
0.000000
0.000000
0.000000
0.000000
0.000000
0.000000
0.000000
0.000000
0.000000
0.000000
0.000000
0.000000
0.000000
0.000000
0.000000
0.002422
0.016192
0.047884
0.095655
0.147215
0.184689
0.196293
0.190989
0.160747
0.109978
0.051157
-0.004328
-0.048845
-0.079450
-0.096795
-0.086224
-0.041206
-0.016139
-0.007979
-0.006747
-0.011728
-0.016405
-0.018428
-0.018383
-0.019468
-0.022233
-0.021022
-0.020279
-0.018334
-0.015752
-0.013328
-0.011186
-0.011091
-0.012467
-0.015458
-0.019029
-0.021630
-0.022974
-0.022792
-0.023657
-0.018493
-0.010197
-0.001799
0.005356
0.012960
0.040644
0.090677
0.140628
0.176701
0.189860
0.185721
0.180410
0.167781
0.124937
0.070363
0.015585
-0.029341
-0.061074
-0.072443
-0.062463
-0.039172
-0.102934
-0.102970
-0.098599
-0.090151
-0.077779
-0.063520
-0.049307
-0.035900
-0.023980
-0.014087
-0.006924
-0.002407
-0.000159
0.000548
0.000069
-0.000929
-0.002175
-0.003718
-0.004970
-0.008645
0.000000
0.000000
0.000000
0.000000
0.000000
0.000000
0.000000
0.000000
0.000000
0.000000
0.000000
0.000000
0.000000
0.000000
0.000000
0.000094
0.005368
0.024641
0.062229
0.112923
0.161932
0.193673
0.201194
0.187670
0.151949
0.100074
0.043712
-0.006890
-0.046631
-0.074367
-0.091297
-0.099459
-0.101501
-0.099103
0.000000
0.000000
0.000000
0.000000
-0.020028
-0.014307
-0.020895
-0.023988
-0.026529
-0.027892
-0.025311
-0.021605
-0.018027
-0.016174
-0.015898
-0.016839
-0.019309
-0.022181
-0.023252
-0.023150
-0.022149
-0.014108
-0.004977
0.004463
0.007556
0.010544
0.016381
0.046422
0.098932
0.148866
0.178933
0.183463
0.180246
0.175470
0.163016
0.121512
0.070573
0.021758
-0.020367
-0.053900
-0.070033
-0.065795
-0.056588
-0.047537
-0.031777
-0.019683
-0.092939
-0.083526
-0.071825
-0.058776
-0.045617
-0.033272
-0.022661
-0.014095
-0.007956
-0.004230
-0.002413
-0.001996
-0.002608
-0.004049
-0.005436
-0.009847
0.000000
0.000000
0.000000
0.000000
0.000000
0.000000
0.000000
0.000000
0.000000
0.000000
0.000000
0.000000
0.000000
0.000000
0.000000
0.000000
0.000769
0.009306
0.033602
0.075572
0.127269
0.172959
0.197729
0.200572
0.183799
0.145671
0.094977
0.042501
-0.003293
-0.039136
-0.065100
-0.082630
-0.093142
-0.097511
-0.097347
-0.094499
-0.088305
-0.079361
-0.054129
-0.054302
-0.041732
-0.032802
-0.019751
-0.009532
-0.002944
-0.002256
0.000000
0.000000
0.000000
0.000000
-0.013570
-0.013130
-0.016159
-0.020439
-0.020356
-0.011662
-0.000959
0.007261
0.009090
0.009169
0.010238
0.017416
0.050504
0.103737
0.153017
0.177121
0.178579
0.173954
0.166637
0.153686
0.116557
0.072582
0.030402
-0.006478
-0.037465
-0.055704
-0.053446
-0.046737
-0.044563
-0.040809
-0.034190
-0.025319
-0.021929
-0.017855
-0.068672
-0.056943
-0.045185
-0.034212
-0.024840
-0.017575
-0.012583
-0.009575
-0.008090
-0.007893
-0.008465
-0.011626
0.000000
0.000000
0.000000
0.000000
0.000000
0.000000
0.000000
0.000000
0.000000
0.000000
0.000000
0.000000
0.000000
0.000000
0.000000
0.000000
0.000000
0.001880
0.013711
0.042142
0.086886
0.138071
0.179836
0.200378
0.199675
0.179566
0.141390
0.093731
0.046169
0.005266
-0.027042
-0.051634
-0.069968
-0.083207
-0.091415
-0.094154
-0.092752
-0.089654
-0.084065
-0.076088
-0.066802
-0.056507
-0.039267
-0.046146
-0.035108
-0.020474
-0.013831
-0.012446
-0.013505
-0.015508
-0.016994
-0.018133
-0.020968
-0.020051
-0.012481
-0.000550
0.008001
0.013178
0.000000
0.000000
0.000000
0.000000
0.013606
0.050560
0.103389
0.151815
0.171858
0.173341
0.167075
0.157124
0.144847
0.113320
0.075868
0.039439
0.007224
-0.019743
-0.038749
-0.037696
-0.032721
-0.033403
-0.031698
-0.027181
-0.022944
-0.024695
-0.029919
-0.032342
-0.029028
-0.020627
-0.046260
-0.036839
-0.029000
-0.022823
-0.018231
-0.014958
-0.012454
-0.011144
0.000000
0.000000
0.000000
0.000000
0.000000
0.000000
0.000000
0.000000
0.000000
0.000000
0.000000
0.000000
0.000000
0.000000
0.000000
0.000000
0.000000
0.000000
0.003336
0.018009
0.049396
0.095383
0.145019
0.183223
0.200099
0.197675
0.176254
0.139922
0.096339
0.053819
0.017765
-0.011160
-0.034284
-0.053167
-0.068223
-0.078900
-0.085051
-0.087401
-0.086703
-0.082784
-0.077878
-0.071034
-0.062701
-0.053619
-0.044729
-0.036468
-0.031154
-0.033754
-0.027388
-0.020837
-0.017941
-0.016851
-0.016681
-0.013551
-0.004838
0.008564
0.012116
0.012736
0.011293
0.008812
0.006477
0.005434
0.003757
0.016592
0.051781
0.098320
0.139639
0.154399
0.141223
0.123960
0.000000
0.000000
0.000000
0.000000
0.047322
0.007418
-0.011965
-0.025367
-0.021686
-0.016239
-0.018286
-0.018059
-0.015502
-0.011303
-0.011742
-0.015622
-0.021349
-0.026705
-0.028944
-0.027806
-0.025559
-0.018313
-0.028715
-0.021505
-0.015242
-0.009098
0.000000
0.000000
0.000000
0.000000
0.000000
0.000000
0.000000
0.000000
0.000000
0.000000
0.000000
0.000000
0.000000
0.000000
0.000000
0.000000
0.000000
0.000000
0.000129
0.004811
0.021615
0.054639
0.100555
0.148148
0.183430
0.196842
0.194749
0.174542
0.141142
0.101950
0.064845
0.033426
0.007648
-0.013851
-0.032089
-0.047374
-0.059714
-0.068599
-0.074068
-0.076349
-0.075707
-0.072612
-0.066824
-0.059556
-0.051827
-0.043105
-0.033471
-0.023280
-0.014482
-0.001480
-0.015537
-0.008765
-0.004223
0.003510
0.012272
0.013355
0.012453
0.012693
0.011929
0.010031
0.006790
0.003738
0.001628
0.000161
0.014409
0.046976
0.092589
0.138482
0.156049
0.159520
0.149252
0.138059
0.127837
0.108569
0.081390
0.053381
0.028987
0.010434
-0.000159
0.000694
0.004404
0.007017
0.000000
0.000000
0.000000
0.000000
0.000285
-0.007057
-0.011110
-0.013007
-0.012628
-0.013777
-0.007444
-0.015245
-0.012939
-0.004778
0.000000
0.000000
0.000000
0.000000
0.000000
0.000000
0.000000
0.000000
0.000000
0.000000
0.000000
0.000000
0.000000
0.000000
0.000000
0.000000
0.000000
0.000000
0.000000
0.000350
0.006025
0.024018
0.057390
0.102153
0.147434
0.180563
0.192968
0.191212
0.173167
0.143648
0.110138
0.078325
0.050601
0.027877
0.008971
-0.007586
-0.022257
-0.034538
-0.044305
-0.051583
-0.056182
-0.057778
-0.056549
-0.053010
-0.047191
-0.039288
-0.029849
-0.018634
-0.007588
0.012484
0.000000
0.000000
0.000000
0.000000
0.000380
0.000627
0.000994
0.000490
0.000113
0.000002
-0.000000
-0.000000
-0.000000
-0.000000
-0.000000
0.011610
0.041314
0.083079
0.125754
0.146556
0.151424
0.141315
0.129788
0.120259
0.107654
0.087088
0.065138
0.044972
0.028986
0.018535
0.016641
0.021908
0.021675
0.019723
0.019769
0.020845
0.019067
0.015562
0.011663
0.008427
0.007809
0.007980
0.014696
0.010485
0.000000
0.000000
0.000000
0.000000
-0.005451
-0.002594
0.000000
0.000000
0.000000
0.000000
0.000000
0.000000
0.000000
0.000000
0.000000
0.000000
0.000000
0.000000
0.000000
0.000000
0.000000
0.000000
0.000535
0.006742
0.024911
0.057410
0.100135
0.142989
0.174742
0.187469
0.186107
0.171924
0.148117
0.119346
0.091798
0.068365
0.048709
0.032063
0.017795
0.005456
-0.005436
-0.014787
-0.022019
-0.026779
-0.029020
-0.028862
-0.026283
-0.021087
-0.013341
-0.002941
0.007521
0.031045
0.000000
0.000000
0.000000
0.000000
0.000000
0.000000
0.000000
0.000000
0.000686
0.000120
0.000048
0.000002
0.000000
0.000029
0.001074
0.007270
0.022927
0.050281
0.085846
0.120288
0.136487
0.141499
0.133081
0.122264
0.111292
0.102198
0.088563
0.071465
0.055035
0.042232
0.034448
0.032276
0.037179
0.040740
0.038775
0.037851
0.038586
0.037373
0.034336
0.031580
0.031499
0.031140
0.038211
0.027925
0.024938
0.022571
0.020631
0.019262
0.019163
0.020876
0.023570
0.027128
0.028659
0.046504
0.000000
0.000000
0.000000
0.000000
0.000000
0.000000
0.000000
0.000000
0.000000
0.000000
0.000000
0.000000
0.000000
0.000613
0.006797
0.024174
0.054716
0.094643
0.135024
0.165934
0.180399
0.181269
0.169826
0.150900
0.128157
0.105275
0.084511
0.067574
0.053944
0.042417
0.032146
0.023148
0.015822
0.010296
0.006607
0.004612
0.004795
0.007308
0.012108
0.019684
0.027095
0.049434
0.000000
0.000000
0.000000
0.000000
0.000000
0.000000
0.000000
0.000000
0.000000
0.000000
0.000000
0.000000
0.004348
0.001285
0.000000
0.000000
0.000000
0.000000
0.000000
0.000000
0.000000
0.000000
0.000000
0.000000
0.000000
0.000000
0.000000
0.000000
0.000000
0.000000
0.000000
0.000000
0.000000
0.000000
0.000000
0.000000
0.000000
0.000000
0.000000
0.000000
0.000000
0.000000
0.000000
0.000000
0.000000
0.000000
0.000000
0.000000
0.000000
0.000000
0.000000
0.000000
0.000000
0.000000
0.000000
0.000000
0.000000
0.000000
0.000000
0.000000
0.000000
0.000000
0.000000
0.000000
0.000000
0.000000
0.000000
0.000000
0.000563
0.006185
0.021919
0.049570
0.086012
0.123658
0.153913
0.170517
0.173337
0.166735
0.152672
0.134473
0.115293
0.098379
0.084349
0.072623
0.062743
0.054558
0.048009
0.042823
0.038817
0.036182
0.035040
0.035475
0.037422
0.041393
0.044375
0.062420
0.000000
0.000000
0.000000
0.000000
0.000000
0.000000
0.000000
0.000000
0.000000
0.000000
0.000000
0.000000
0.000000
0.000000
0.000000
0.000000
0.000000
0.000000
0.000000
0.000000
0.000000
0.000000
0.000000
0.000000
0.000000
0.000000
0.000000
0.000000
0.000000
0.000000
0.000000
0.000000
0.000000
0.000000
0.000000
0.000000
0.000000
0.000000
0.000000
0.000000
0.000000
0.000000
0.000000
0.000000
0.000000
0.000000
0.000000
0.000000
0.000000
0.000000
0.000000
0.000000
0.000000
0.000000
0.000000
0.000000
0.000000
0.000000
0.000000
0.000000
0.000000
0.000000
0.000000
0.000000
0.000000
0.000000
0.000000
0.000000
0.000000
0.000409
0.005040
0.018459
0.042466
0.074758
0.109218
0.138494
0.157157
0.163638
0.159996
0.150275
0.137006
0.122693
0.108901
0.096602
0.086307
0.077954
0.071270
0.065945
0.061785
0.058727
0.056719
0.055683
0.055434
0.055937
0.054906
0.068088
0.000000
0.000000
0.000000
0.000000
0.000000
0.000000
0.000000
0.000000
0.000000
0.000000
0.000000
0.000000
0.000000
0.000000
0.000000
0.000000
0.000000
0.000000
0.000000
0.000000
0.000000
0.000000
0.000000
0.000000
0.000000
0.000000
0.000000
0.000000
0.000000
0.000000
0.000000
0.000000
0.000000
0.000000
0.000000
0.000000
0.000000
0.000000
0.000000
0.000000
0.000000
0.000000
0.000000
0.000000
0.000000
0.000000
0.000000
0.000000
0.000000
0.000000
0.000000
0.000000
0.000000
0.000000
0.000000
0.000000
0.000000
0.000000
0.000000
0.000000
0.000000
0.000000
0.000000
0.000000
0.000000
0.000000
0.000000
0.000000
0.000000
0.000000
0.000212
0.003591
0.014265
0.034094
0.061678
0.092421
0.120285
0.140256
0.149491
0.150690
0.144388
0.135765
0.125197
0.114027
0.103729
0.094771
0.087201
0.080993
0.075952
0.071897
0.068690
0.066136
0.063972
0.062276
0.059715
0.068441
0.000000
0.000000
0.000000
0.000000
0.000000
0.000000
0.000000
0.000000
0.000000
0.000000
0.000000
0.000000
0.000000
0.000000
0.000000
0.000000
0.000000
0.000000
0.000000
0.000000
0.000000
0.000000
0.000000
0.000000
0.000000
0.000000
0.000000
0.000000
0.000000
0.000000
0.000000
0.000000
0.000000
0.000000
0.000000
0.000000
0.000000
0.000000
0.000000
0.000000
0.000000
0.000000
0.000000
0.000000
0.000000
0.000000
0.000000
0.000000
0.000000
0.000000
0.000000
0.000000
0.000000
0.000000
0.000000
0.000000
0.000000
0.000000
0.000000
0.000000
0.000000
0.000000
0.000000
0.000000
0.000000
0.000000
0.000000
0.000000
0.000000
0.000000
0.000000
0.000049
0.002151
0.009875
0.025280
0.047763
0.074094
0.099626
0.120198
0.133185
0.137987
0.136351
0.130391
0.122548
0.114100
0.105608
0.097583
0.090433
0.084186
0.078752
0.073972
0.069684
0.066127
0.063292
0.060294
0.063120
0.000000
0.000000
0.000000
0.000000
0.000000
0.000000
0.000000
0.000000
0.000000
0.000000
0.000000
0.000000
0.000000
0.000000
0.000000
0.000000
0.000000
0.000000
0.000000
0.000000
0.000000
0.000000
0.000000
0.000000
0.000000
0.000000
0.000000
0.000973
0.000000
0.000000
0.000000
0.000000
0.000000
0.000000
0.000000
0.000000
0.000000
0.000000
0.000000
0.000000
0.000000
0.000000
0.000000
0.000000
0.000000
0.000000
0.000000
0.000000
0.000000
0.000000
0.000000
0.000000
0.000000
0.000000
0.000000
0.000000
0.000000
0.000000
0.000000
0.000000
0.000000
0.000000
0.000000
0.000000
0.000000
0.000000
0.000000
0.000000
0.000000
0.000000
0.000000
0.000000
0.000000
0.000000
0.005928
0.016932
0.034096
0.055487
0.077724
0.097279
0.111748
0.119681
0.122722
0.121001
0.116092
0.109330
0.102000
0.095073
0.088341
0.081907
0.076028
0.070832
0.066059
0.061632
0.057445
0.054114
0.000000
0.000000
0.000000
0.000000
0.000000
0.000000
0.000000
0.000000
0.000000
0.000000
0.000000
0.000000
0.000000
0.000000
0.000000
0.000000
0.000000
0.000000
0.000000
0.000000
0.000000
0.000000
0.000000
0.000000
0.000000
0.000000
0.000000
0.000000
0.000250
0.002832
0.009856
0.021907
0.000000
0.000000
0.000000
0.000000
0.000000
0.000000
0.000000
0.000000
0.000000
0.000000
0.000000
0.000000
0.000000
0.000000
0.000000
0.000000
0.000000
0.000000
0.000000
0.000000
0.000000
0.000000
0.000000
0.000000
0.000000
0.000000
0.000000
0.000000
0.000000
0.000000
0.000000
0.000000
0.000000
0.000000
0.000000
0.000000
0.000000
0.000000
0.000000
0.000000
0.000000
0.000000
0.000000
0.000000
0.000000
0.000000
0.038025
0.056010
0.073277
0.087659