# vtk DataFile Version 3.0
Created by write_to_vtk2d
ASCII
DATASET STRUCTURED_POINTS
DIMENSIONS 100 100 1
SPACING 1.000000 1.000000 0.0
ORIGIN 0.000000 0.000000 0.0
POINT_DATA 10000
SCALARS p float 1
LOOKUP_TABLE p_table
-0.025092
-0.021417
-0.009733
0.003595
0.015038
0.019663
0.017263
0.013113
0.009782
0.007809
0.007013
0.008948
0.000000
0.000000
0.000000
0.000000
-0.001535
-0.001780
-0.002462
-0.003160
-0.003732
-0.004049
-0.004516
-0.004799
-0.004840
-0.005420
-0.005617
-0.007561
-0.009031
-0.009788
-0.009788
-0.008301
-0.006253
-0.003869
-0.001521
0.001076
0.002744
0.007812
0.018789
0.032768
0.049903
0.064110
0.071681
0.071291
0.065321
0.058308
0.053268
0.057031
0.045857
0.050270
0.050895
0.035727
0.014591
-0.004821
-0.016049
-0.018219
-0.014839
-0.007849
-0.001316
0.001740
0.001739
0.000403
-0.001425
-0.002913
-0.003898
-0.004621
-0.005279
-0.005932
-0.006601
-0.007311
-0.008068
-0.008840
-0.009612
-0.010372
-0.011128
-0.011890
-0.012643
-0.013407
-0.014205
-0.015002
-0.014882
-0.015161
-0.015645
-0.017171
-0.018463
-0.019439
-0.020356
-0.021244
-0.021811
-0.025421
0.000208
0.002574
0.008956
0.019551
0.032513
0.044886
0.054278
0.059719
0.061400
0.059482
0.050612
0.031711
0.042422
0.049371
0.016760
0.007742
0.001115
-0.003768
-0.005511
-0.008190
-0.010245
-0.011172
-0.011730
-0.011122
-0.009856
-0.008792
-0.008797
-0.008713
-0.009292
-0.010970
0.000000
0.000000
0.000000
0.000000
-0.025719
-0.025407
-0.026855
-0.025739
-0.024148
-0.022329
-0.020509
-0.018448
-0.016272
-0.010139
0.000456
0.020094
0.043560
0.065302
0.081679
0.090190
0.090945
0.085428
0.067132
0.039010
0.017445
-0.012448
-0.027912
-0.024872
-0.017047
-0.020428
-0.026214
-0.026749
-0.020138
-0.009590
-0.000651
0.003290
0.003089
0.001213
-0.001099
-0.002902
-0.004001
-0.004720
-0.005349
-0.005978
-0.006610
-0.007268
-0.007968
-0.008677
-0.009367
-0.010027
-0.010685
-0.011356
-0.012049
-0.012732
-0.013381
-0.014072
-0.014281
-0.014739
-0.015172
-0.016356
-0.017549
-0.018744
-0.019790
-0.020893
-0.021573
-0.024161
0.000193
0.002714
0.009817
0.021822
0.036571
0.050467
0.060463
0.065426
0.065735
0.062728
0.051228
0.029199
0.001191
-0.023127
-0.035415
-0.035164
-0.007571
-0.009411
-0.001032
0.003455
0.003138
-0.000577
-0.007211
-0.013048
-0.019364
-0.021247
-0.019947
-0.019257
-0.018055
-0.016641
-0.014844
-0.013340
-0.013292
-0.012311
-0.009065
-0.008468
-0.007365
-0.005924
-0.005112
-0.004972
-0.004985
-0.003365
0.000000
0.000000
0.000000
0.000000
0.029919
0.057159
0.080014
0.091446
0.093879
0.089480
0.079388
0.052773
0.024667
-0.016164
-0.041031
-0.044522
-0.044291
-0.036708
-0.023236
-0.016062
-0.019531
-0.022063
-0.000774
0.004478
0.004384
0.002153
-0.000637
-0.002782
-0.004021
-0.004755
-0.005357
-0.005968
-0.006579
-0.007195
-0.007845
-0.008513
-0.009177
-0.009815
-0.010438
-0.011063
-0.011706
-0.012371
-0.013003
-0.013726
-0.014242
-0.014810
-0.015113
-0.015736
-0.016525
-0.017611
-0.018693
-0.019774
-0.020384
-0.023198
0.000140
0.002627
0.010159
0.023283
0.039709
0.055302
0.066217
0.071012
0.070820
0.066439
0.052742
0.028075
-0.002832
-0.029844
-0.043759
-0.043464
-0.032769
-0.016229
-0.001814
0.005044
-0.001554
-0.004850
-0.012627
-0.012231
-0.011100
-0.009371
-0.008343
-0.009016
-0.009907
-0.011514
-0.013534
-0.015219
-0.018321
-0.018911
-0.018478
-0.017948
-0.016279
-0.014964
-0.013539
-0.012191
-0.011860
-0.010507
-0.012759
-0.006919
0.002065
0.013678
0.028683
0.044419
0.054740
0.058922
0.052359
0.042024
0.028690
0.026816
0.000000
0.000000
0.000000
0.000000
-0.045492
-0.034722
-0.017962
-0.003991
0.000168
-0.002573
-0.006757
-0.008518
-0.010564
-0.010334
-0.000014
-0.002554
-0.004018
-0.004823
-0.005416
-0.005998
-0.006577
-0.007147
-0.007741
-0.008360
-0.008994
-0.009618
-0.010201
-0.010730
-0.011228
-0.011738
-0.012246
-0.012926
-0.013798
-0.014500
-0.015145
-0.015479
-0.015940
-0.016891
-0.017921
-0.018936
-0.019522
-0.022359
0.000067
0.002340
0.009945
0.023896
0.041914
0.059290
0.071520
0.076547
0.076021
0.070682
0.055278
0.028521
-0.004920
-0.034807
-0.050829
-0.051180
-0.039958
-0.021362
-0.004204
0.004949
0.006328
0.004310
0.000911
-0.002058
-0.010219
-0.008628
-0.012802
-0.011612
-0.013071
-0.013644
-0.013214
-0.012206
-0.012505
-0.013191
-0.013283
-0.014820
-0.015794
-0.017877
-0.019146
-0.019893
-0.019529
-0.018429
-0.016746
-0.012178
0.000441
0.019451
0.039951
0.063144
0.087094
0.105590
0.111276
0.105470
0.093816
0.064365
0.028624
-0.021426
-0.054419
-0.064605
-0.067346
-0.057968
-0.032761
-0.010744
0.000018
0.002036
0.000470
-0.000521
0.000000
0.000000
0.000000
0.000000
-0.012671
-0.012126
-0.005456
-0.006022
-0.006572
-0.007086
-0.007604
-0.008158
-0.008755
-0.009362
-0.009943
-0.010471
-0.010967
-0.011497
-0.012066
-0.012893
-0.013794
-0.014730
-0.015047
-0.014742
-0.014772
-0.015428
-0.016317
-0.017457
-0.018176
-0.021624
0.000000
0.001908
0.009234
0.023574
0.042958
0.062290
0.076264
0.082133
0.081573
0.075462
0.058878
0.030574
-0.004992
-0.037791
-0.056353
-0.058480
-0.047993
-0.027993
-0.008178
0.003844
0.006581
0.005379
0.002067
-0.001222
-0.003452
-0.004693
-0.005430
-0.006009
-0.019480
-0.017548
-0.016337
-0.013383
-0.013810
-0.013404
-0.013104
-0.013251
-0.013007
-0.012652
-0.011603
-0.011617
-0.011560
-0.011444
-0.014592
-0.011375
-0.002059
0.011995
0.031878
0.055932
0.076769
0.097468
0.112619
0.114206
0.104449
0.075818
0.037520
-0.016825
-0.056892
-0.068050
-0.078395
-0.073118
-0.049190
-0.024216
-0.009319
-0.005347
-0.006272
-0.006095
-0.003065
-0.003805
-0.004442
-0.005368
-0.005179
-0.004187
-0.005490
-0.007739
-0.008385
-0.008397
-0.007445
-0.007913
-0.008432
-0.008975
-0.009504
-0.009991
-0.010435
-0.010884
-0.011335
-0.012036
-0.013335
-0.014539
-0.014988
-0.015110
-0.015159
-0.015332
-0.015629
-0.016314
-0.016676
-0.021009
0.000000
0.001390
0.008110
0.022388
0.042769
0.064146
0.080323
0.087530
0.087201
0.080786
0.063506
0.034212
-0.003095
-0.038591
-0.060759
-0.065397
-0.056347
-0.036187
-0.013835
0.001539
0.007054
0.006346
0.003442
-0.000026
-0.002723
-0.004387
-0.005373
-0.006051
-0.006598
-0.007058
-0.007477
-0.007902
-0.007977
-0.007881
-0.010772
-0.013497
0.000000
0.000000
0.000000
0.000000
-0.016235
-0.015494
-0.016228
-0.015714
-0.008204
0.004878
0.025317
0.051108
0.074263
0.089835
0.104518
0.114193
0.109070
0.081145
0.040973
-0.016495
-0.060494
-0.073241
-0.082918
-0.082104
-0.061132
-0.034184
-0.015338
-0.008525
-0.007531
-0.006368
-0.003829
-0.002939
-0.004952
-0.006982
-0.008258
-0.009445
-0.010408
-0.010724
-0.009874
-0.008842
-0.008961
-0.010970
-0.022152
-0.023522
-0.009398
-0.009879
-0.010338
-0.010776
-0.011131
-0.011593
-0.012650
-0.013606
-0.014434
-0.014616
-0.014601
-0.014727
-0.014839
-0.015313
-0.015570
-0.019788
0.000000
0.000863
0.006674
0.020396
0.041356
0.064652
0.083423
0.092704
0.093069
0.086741
0.069275
0.039461
0.000856
-0.037267
-0.063474
-0.070549
-0.064386
-0.045105
-0.021202
-0.002431
0.006074
0.006888
0.004737
0.001357
-0.001649
-0.003748
-0.005075
-0.005935
-0.006553
-0.007029
-0.007421
-0.007797
-0.008218
-0.008686
-0.009162
-0.009616
-0.022172
-0.022889
-0.023705
-0.021352
-0.020107
-0.018435
-0.016372
-0.013902
-0.006070
0.005015
0.017382
0.033259
0.000000
0.000000
0.000000
0.000000
0.128476
0.097805
0.055361
-0.004917
-0.054407
-0.072035
-0.078367
-0.080373
-0.068725
-0.042149
-0.019803
-0.009202
-0.006303
-0.003855
-0.000654
0.000813
-0.003021
-0.006377
-0.008193
-0.009858
-0.011131
-0.011240
-0.009892
-0.008313
-0.007270
-0.007276
-0.008135
-0.009048
-0.010480
-0.011672
-0.025207
-0.022736
-0.010599
-0.010842
-0.011661
-0.012728
-0.013744
-0.014332
-0.014633
-0.014748
-0.014638
-0.014727
-0.014550
-0.018360
0.000000
0.000417
0.005070
0.017736
0.038688
0.063629
0.085261
0.097398
0.098986
0.093201
0.076170
0.046288
0.006787
-0.033799
-0.063819
-0.075319
-0.071921
-0.054726
-0.030008
-0.008271
0.003903
0.006509
0.005533
0.002791
-0.000225
-0.002698
-0.004458
-0.005663
-0.006484
-0.007022
-0.007370
-0.007665
-0.008011
-0.008411
-0.008859
-0.009320
-0.009741
-0.010138
-0.010396
-0.010573
-0.021694
-0.018436
-0.020237
-0.017223
-0.013258
-0.000452
0.017824
0.045684
0.075501
0.096570
0.107481
0.109771
0.102445
0.079591
0.044089
-0.006763
-0.050188
-0.067946
-0.059284
-0.042309
0.000000
0.000000
0.000000
0.000000
-0.008635
-0.000368
0.003497
0.005270
0.002088
-0.003862
-0.008226
-0.010880
-0.012795
-0.013614
-0.013388
-0.011863
-0.010375
-0.009858
-0.009974
-0.009838
-0.009029
-0.007776
-0.007528
-0.008031
-0.008086
-0.009168
-0.014605
-0.009278
-0.012622
-0.013416
-0.013961
-0.014122
-0.014243
-0.014539
-0.014088
-0.017494
0.000000
0.000111
0.003458
0.014569
0.034900
0.061005
0.085519
0.101119
0.104325
0.100080
0.083952
0.054616
0.014687
-0.027970
-0.062048
-0.078708
-0.078090
-0.064035
-0.040329
-0.016390
-0.000330
0.005851
0.005861
0.003944
0.001328
-0.001223
-0.003344
-0.004999
-0.006201
-0.006974
-0.007386
-0.007626
-0.007894
-0.008203
-0.008570
-0.008975
-0.009364
-0.009776
-0.010109
-0.010302
-0.010676
-0.011121
-0.011683
-0.012424
-0.006765
0.002573
0.008213
0.036336
0.069492
0.095377
0.111157
0.124197
0.130394
0.117439
0.080336
0.018133
-0.041696
-0.075128
-0.082292
-0.086308
-0.085823
-0.068569
-0.041258
-0.019664
-0.007955
-0.001565
0.002863
0.006253
0.003053
0.000198
0.000085
0.001835
0.000000
0.000000
0.000000
0.000000
-0.014138
-0.012477
-0.012082
-0.012643
-0.013415
-0.014880
-0.015921
-0.015540
-0.011841
-0.010643
-0.009924
-0.009772
-0.006086
0.005678
0.033969
0.052956
-0.013552
-0.013722
-0.013925
-0.017257
0.000000
0.000000
0.002028
0.011171
0.030117
0.056668
0.083945
0.103381
0.110432
0.107252
0.092731
0.064335
0.024476
-0.019784
-0.057723
-0.079253
-0.083026
-0.073163
-0.051486
-0.026395
-0.006788
0.003249
0.005298
0.004552
0.002639
0.000348
-0.001926
-0.003952
-0.005582
-0.006713
-0.007335
-0.007623
-0.007837
-0.008070
-0.008336
-0.008652
-0.008948
-0.009299
-0.009645
-0.009912
-0.010266
-0.010609
-0.011196
-0.011604
-0.012218
-0.012715
-0.013108
-0.013464
0.065326
0.084628
0.116692
0.128955
0.139807
0.132001
0.098194
0.036909
-0.026980
-0.072292
-0.080924
-0.081892
-0.082885
-0.077738
-0.054527
-0.031191
-0.016424
-0.007798
-0.000682
0.006210
0.005489
0.001063
-0.003849
-0.005586
-0.005437
-0.006401
-0.009667
-0.011120
-0.010278
-0.008174
-0.006863
-0.005807
-0.005413
-0.005105
-0.005039
-0.006222
0.000000
0.000000
0.000000
0.000000
-0.010237
-0.009098
-0.008128
-0.000287
0.008761
0.031645
0.108836
0.120685
0.000000
0.000000
0.000929
0.007806
0.024616
0.050802
0.080227
0.103935
0.115159
0.114166
0.101967
0.075415
0.036235
-0.009181
-0.050705
-0.078008
-0.085395
-0.080808
-0.062626
-0.037851
-0.015478
-0.001310
0.004140
0.004561
0.003539
0.001772
-0.000329
-0.002514
-0.004523
-0.006107
-0.007107
-0.007619
-0.007873
-0.008083
-0.008290
-0.008532
-0.008752
-0.009040
-0.009320
-0.009566
-0.009855
-0.010072
-0.010526
-0.010953
-0.011437
-0.011863
-0.012287
-0.012690
-0.012320
-0.015020
0.000000
0.000000
0.115797
0.092153
0.115394
0.054578
-0.009207
-0.062163
-0.081736
-0.084251
-0.087566
-0.087833
-0.071486
-0.047306
-0.028180
-0.015542
-0.006090
0.002950
0.006501
0.001738
-0.004020
-0.008865
-0.012498
-0.014554
-0.015136
-0.014026
-0.012557
-0.011157
-0.010451
-0.010166
-0.009577
-0.008784
-0.008346
-0.008304
-0.008530
-0.008771
-0.008136
-0.007501
-0.007488
-0.007855
-0.007915
-0.007079
-0.010261
-0.010769
-0.011035
-0.012005
0.000000
0.000000
0.000000
0.000000
0.018806
0.043507
0.074290
0.102088
0.118253
0.120532
0.111628
0.087632
0.049738
0.003767
-0.040950
-0.073651
-0.088066
-0.086641
-0.072882
-0.049972
-0.026069
-0.008225
0.001106
0.003784
0.003616
0.002580
0.001079
-0.000863
-0.003029
-0.005016
-0.006495
-0.007369
-0.007751
-0.007951
-0.008071
-0.008239
-0.008408
-0.008662
-0.008955
-0.009245
-0.009558
-0.009756
-0.010125
-0.010401
-0.010813
-0.011176
-0.011543
-0.011926
-0.011583
-0.014078
0.000000
0.000000
0.000000
0.002439
0.013155
0.035242
0.000000
0.000000
-0.073924
-0.080801
-0.082424
-0.086622
-0.081133
-0.061004
-0.035402
-0.018822
-0.010820
0.000470
0.007122
0.004308
-0.001544
-0.007501
-0.011882
-0.014683
-0.015766
-0.014683
-0.013283
-0.011057
-0.009669
-0.009375
-0.008990
-0.007999
-0.007254
-0.007216
-0.007414
-0.007398
-0.007078
-0.006973
-0.007280
-0.007920
-0.009511
-0.008192
-0.010045
-0.011103
-0.008550
-0.007503
-0.003437
0.015201
0.042916
0.066971
0.079874
0.054247
-0.034935
-0.057742
0.119370
0.125579
0.120834
0.100467
0.064832
0.019072
-0.028090
-0.066148
-0.086707
-0.090192
-0.081621
-0.062056
-0.038149
-0.017534
-0.004337
0.001645
0.003011
0.002842
0.002105
0.000764
-0.001190
-0.003414
-0.005431
-0.006883
-0.007661
-0.007956
-0.008060
-0.008129
-0.008165
-0.008299
-0.008502
-0.008745
-0.009052
-0.009272
-0.009631
-0.009863
-0.010212
-0.010460
-0.010762
-0.011111
-0.010825
-0.013124
0.000000
0.000000
0.000000
0.000871
0.008141
0.026590
0.056068
0.089852
0.117459
0.130804
-0.068860
-0.047456
-0.065201
-0.056985
-0.045510
-0.036163
0.000000
0.000000
0.000000
0.000000
-0.000414
-0.005004
-0.007516
-0.010514
-0.012689
-0.013230
-0.012951
-0.012257
-0.010610
-0.009999
-0.009241
-0.007977
-0.006798
-0.006333
-0.005363
-0.004516
-0.004355
-0.004990
-0.005755
-0.006578
-0.008335
-0.007875
-0.008942
-0.010878
-0.011415
-0.011890
-0.009821
0.000336
0.024841
0.060704
0.099485
0.122456
0.122648
0.102790
0.074914
0.037346
-0.007073
-0.006325
0.081267
0.036623
-0.012136
-0.054874
-0.082535
-0.091107
-0.088183
-0.073345
-0.051161
-0.029031
-0.012335
-0.002664
0.001471
0.002527
0.002458
0.001883
0.000591
-0.001386
-0.003599
-0.005535
-0.006847
-0.007577
-0.007852
-0.008005
-0.008070
-0.008178
-0.008323
-0.008480
-0.008712
-0.008880
-0.009174
-0.009323
-0.009573
-0.009802
-0.010047
-0.010326
-0.010088
-0.012202
0.000000
0.000000
0.000000
0.000111
0.004198
0.018285
0.044718
0.079254
0.111847
0.132186
0.136100
0.126062
0.098617
0.056229
-0.001404
0.027465
0.004216
0.018416
0.009814
0.005736
-0.001036
-0.004769
-0.011593
-0.012136
-0.004814
-0.003222
-0.004639
-0.004796
0.000000
0.000000
0.000000
0.000000
-0.007044
-0.005350
-0.004779
-0.004536
-0.004989
-0.005451
-0.006850
-0.008123
-0.009227
-0.009301
-0.009872
-0.010485
-0.010811
-0.011203
-0.011218
-0.006091
0.012192
0.043757
0.083718
0.118361
0.134952
0.136656
0.122852
0.085011
0.044822
0.003518
-0.033315
-0.047971
-0.033315
-0.008179
-0.074726
-0.091427
-0.092574
-0.083037
-0.064186
-0.042043
-0.022616
-0.009286
-0.002017
0.001129
0.002123
0.002182
0.001622
0.000274
-0.001657
-0.003753
-0.005500
-0.006709
-0.007315
-0.007655
-0.007797
-0.007917
-0.008044
-0.008144
-0.008320
-0.008455
-0.008712
-0.008823
-0.009007
-0.009177
-0.009373
-0.009638
-0.009471
-0.011043
0.000000
0.000000
0.000000
0.000000
0.001594
0.011070
0.032994
0.066138
0.102353
0.129843
0.141090
0.136871
0.115756
0.077347
0.028338
-0.021615
-0.062560
-0.087160
-0.009661
0.006715
0.031951
0.036354
0.029136
0.016119
-0.002654
-0.014589
-0.021445
-0.020632
-0.016922
-0.015730
-0.011369
-0.007596
-0.004999
-0.003673
-0.001990
-0.001504
-0.002102
-0.003458
-0.004137
-0.004917
0.000000
0.000000
0.000000
0.000000
-0.015676
-0.015707
-0.015377
-0.010559
0.003715
0.029713
0.067974
0.107268
0.133208
0.143032
0.145242
0.137741
0.111249
0.052814
-0.012398
-0.065442
-0.085728
-0.081417
-0.067089
-0.042868
-0.028290
-0.012799
-0.076079
-0.055734
-0.035031
-0.018566
-0.007858
-0.001964
0.000851
0.001950
0.002062
0.001512
0.000240
-0.001686
-0.003706
-0.005433
-0.006566
-0.007196
-0.007499
-0.007635
-0.007720
-0.007764
-0.007891
-0.007997
-0.008223
-0.008321
-0.008465
-0.008592
-0.008737
-0.008967
-0.008842
-0.009945
0.000000
0.000000
0.000000
0.000000
0.000291
0.005539
0.021977
0.051491
0.088887
0.122966
0.142327
0.145033
0.131682
0.099137
0.052326
0.000676
-0.045498
-0.077921
-0.092867
-0.093873
-0.085634
-0.069058
-0.012338
-0.018813
-0.003311
-0.001876
0.003670
0.003599
0.001838
-0.000775
-0.004822
-0.007831
-0.009361
-0.009221
-0.007770
-0.005738
-0.004289
-0.003817
-0.003411
-0.003642
-0.005581
-0.004876
-0.007268
-0.009280
-0.009512
-0.009852
-0.010104
-0.009566
-0.004524
0.012939
0.035715
0.056441
0.000000
0.000000
0.000000
0.000000
0.157907
0.101407
0.033263
-0.032760
-0.079493
-0.088676
-0.086275
-0.079120
-0.062585
-0.043784
-0.031570
-0.023871
-0.017280
-0.011099
-0.016429
-0.007356
-0.002150
0.000602
0.001811
0.001975
0.001516
0.000228
-0.001599
-0.003541
-0.005139
-0.006263
-0.006882
-0.007153
-0.007310
-0.007367
-0.007491
-0.007574
-0.007749
-0.007815
-0.007911
-0.007981
-0.008075
-0.008262
-0.008206
-0.008814
0.000000
0.000000
0.000000
0.000000
0.000000
0.002004
0.012701
0.036683
0.072346
0.110744
0.139289
0.149542
0.144632
0.120437
0.078318
0.027066
-0.023252
-0.063451
-0.087334
-0.093745
-0.091698
-0.080706
-0.063313
-0.044199
-0.027516
-0.015173
0.008110
-0.008198
-0.016731
-0.015090
-0.008125
-0.002519
0.001571
0.003440
0.004270
0.004409
0.002235
-0.000542
-0.004651
-0.005871
-0.007695
-0.009002
-0.011525
-0.014166
-0.016776
-0.019685
-0.022044
-0.022359
-0.014958
0.004548
0.032518
0.071214
0.110589
0.140768
0.152589
0.146377
0.135891
0.113035
0.059545
-0.000955
-0.046712
-0.067237
-0.064719
-0.047111
0.000000
0.000000
0.000000
0.000000
-0.037768
-0.015718
-0.004159
0.002716
-0.004849
-0.012352
0.000572
0.001713
0.001869
0.001321
0.000086
-0.001628
-0.003349
-0.004805
-0.005809
-0.006362
-0.006675
-0.006826
-0.006999
-0.007091
-0.007220
-0.007245
-0.007297
-0.007348
-0.007411
-0.007536
-0.007529
-0.007690
0.000000
0.000000
0.000000
0.000000
0.000000
0.000334
0.005912
0.023217
0.054274
0.093756
0.129912
0.150525
0.153533
0.139339
0.105272
0.056853
0.003946
-0.043172
-0.076352
-0.092041
-0.094306
-0.089076
-0.076178
-0.058802
-0.041066
-0.025941
-0.014625
-0.006913
-0.002037
0.000662
0.000610
-0.005870
-0.007879
-0.005320
-0.003263
-0.001061
0.001720
0.002359
0.000714
-0.001711
-0.003085
-0.003312
-0.008457
-0.013852
-0.018573
-0.022748
-0.026146
-0.027817
-0.024343
-0.010731
0.016303
0.051112
0.092013
0.131412
0.154667
0.155073
0.159254
0.157814
0.118286
0.055001
-0.010156
-0.062346
-0.083524
-0.081630
-0.076476
-0.072033
-0.064866
-0.055076
-0.045235
-0.029677
-0.012987
-0.000082
0.005042
-0.000273
-0.007102
-0.004692
0.000000
0.000000
0.001206
0.000021
-0.001508
-0.003051
-0.004343
-0.005221
-0.005797
-0.006109
-0.006369
-0.006518
-0.006627
-0.006617
-0.006619
-0.006651
-0.006704
-0.006753
-0.006688
-0.006765
0.000000
0.000000
0.000000
0.000000
0.000000
0.000000
0.001880
0.012430
0.036652
0.073456
0.114076
0.145185
0.157981
0.153801
0.130231
0.087714
0.035134
-0.016511
-0.057904
-0.083605
-0.093711
-0.093221
-0.085897
-0.072567
-0.056019
-0.039528
-0.025446
-0.014696
-0.007123
-0.002241
0.000576
0.001625
0.001657
0.001121
0.000000
0.000000
0.000000
0.000000
-0.000933
-0.002708
-0.004674
-0.003870
-0.007135
-0.012261
-0.017642
-0.023184
-0.027118
-0.029951
-0.029896
-0.021324
-0.003564
0.029718
0.067636
0.112521
0.147759
0.158624
0.158622
0.160687
0.148879
0.098779
0.035030
-0.024962
-0.070040
-0.081219
-0.077787
-0.071148
-0.065939
-0.063957
-0.063593
-0.053200
-0.035417
-0.017921
-0.005226
0.001180
-0.002878
-0.009449
-0.011991
-0.013193
-0.009431
-0.004361
-0.002490
-0.002224
-0.002626
-0.003792
-0.004662
-0.005177
-0.005558
-0.005772
-0.005884
-0.005892
-0.005889
-0.005913
-0.005960
-0.005970
-0.005866
-0.005952
0.000000
0.000000
0.000000
0.000000
0.000000
0.000000
0.000199
0.005095
0.021471
0.052205
0.092796
0.131659
0.156880
0.162609
0.149887
0.117011
0.069074
0.015948
-0.032287
-0.068016
-0.087697
-0.092824
-0.091545
-0.083765
-0.070558
-0.054795
-0.039173
-0.025701
-0.015124
-0.007495
-0.002387
0.000471
0.001529
0.001578
0.001206
0.000335
-0.000955
-0.002243
-0.013072
-0.010626
-0.008293
-0.009328
-0.008406
-0.006536
-0.005047
-0.004325
0.000000
0.000000
0.000000
0.000000
-0.014966
0.010004
0.045415
0.090385
0.133381
0.155843
0.160187
0.161447
0.162127
0.137696
0.082606
0.020561
-0.034275
-0.073560
-0.078974
-0.074189
-0.066906
-0.062131
-0.059159
-0.056830
-0.047747
-0.031636
-0.016346
-0.005486
-0.000525
-0.004926
-0.010287
-0.012628
-0.014677
-0.014373
-0.011267
-0.007908
-0.007029
-0.007475
-0.004211
-0.004757
-0.004561
-0.004868
-0.005045
-0.005109
-0.005141
-0.005165
-0.005183
-0.005154
-0.005037
-0.005116
0.000000
0.000000
0.000000
0.000000
0.000000
0.000000
0.000000
0.001237
0.010220
0.032643
0.068715
0.110829
0.146299
0.164397
0.163211
0.143426
0.104468
0.053210
0.000547
-0.043772
-0.074147
-0.089441
-0.092847
-0.090381
-0.082571
-0.070039
-0.055172
-0.040290
-0.026994
-0.016232
-0.008134
-0.002719
0.000362
0.001661
0.001863
0.001458
0.000548
-0.000566
-0.001688
-0.002597
-0.003335
-0.003836
-0.012504
-0.010962
-0.013722
-0.018279
-0.019769
-0.020171
-0.019045
-0.016389
-0.012545
-0.001739
0.025159
0.066370
0.107732
0.130847
0.133414
0.127046
0.000000
0.000000
0.000000
0.000000
0.015259
-0.051737
-0.080165
-0.080110
-0.073885
-0.065489
-0.060096
-0.055600
-0.051446
-0.043995
-0.030467
-0.017735
-0.008897
-0.004459
-0.007771
-0.011989
-0.013678
-0.015520
-0.017529
-0.018038
-0.015986
-0.012298
-0.010133
-0.008391
-0.006546
-0.006045
-0.005284
-0.006204
-0.004372
-0.004387
-0.004373
-0.004327
-0.004218
-0.004285
0.000000
0.000000
0.000000
0.000000
0.000000
0.000000
0.000000
0.000000
0.003400
0.017072
0.045117
0.085031
0.126783
0.156776
0.166338
0.161906
0.135893
0.091441
0.039072
-0.010925
-0.050799
-0.076777
-0.089147
-0.091954
-0.089273
-0.082071
-0.070617
-0.056876
-0.042592
-0.029315
-0.018114
-0.009568
-0.003527
0.000253
0.001902
0.002153
0.001811
0.001158
0.000252
-0.000722
-0.001676
-0.002423
-0.002961
-0.003297
-0.003465
-0.003519
-0.011730
-0.011141
-0.015685
-0.019123
-0.020661
-0.018897
-0.004856
0.029896
0.081235
0.121160
0.151088
0.162405
0.161441
0.161481
0.151705
0.108411
0.051756
-0.003879
-0.049098
-0.076187
-0.072177
-0.058336
-0.038192
-0.023568
0.000000
0.000000
0.000000
0.000000
-0.019343
-0.006878
-0.003687
-0.007195
-0.012981
-0.014628
-0.018092
-0.020084
-0.020617
-0.019808
-0.017598
-0.013932
-0.010443
-0.007454
-0.005143
-0.003692
-0.003570
-0.005079
-0.010464
-0.010016
-0.003394
-0.003452
0.000000
0.000000
0.000000
0.000000
0.000000
0.000000
0.000000
0.000000
0.000494
0.006736
0.025184
0.058047
0.100111
0.139525
0.164766
0.170734
0.158382
0.126782
0.080467
0.028922
-0.017954
-0.053992
-0.077043
-0.088091
-0.090793
-0.088676
-0.082510
-0.072557
-0.059818
-0.045972
-0.032875
-0.021431
-0.011977
-0.004848
-0.000347
0.001830
0.002390
0.002480
0.002052
0.001299
0.000392
-0.000499
-0.001272
-0.001845
-0.002203
-0.002379
-0.002481
-0.002539
-0.002503
-0.002622
-0.013539
-0.011911
-0.011230
0.008367
0.044380
0.090852
0.128753
0.154431
0.161090
0.163013
0.163240
0.149826
0.106127
0.053280
0.003407
-0.039604
-0.070298
-0.070465
-0.063647
-0.055690
-0.052622
-0.050085
-0.046689
-0.041709
-0.032369
-0.023586
-0.016513
-0.011373
-0.009151
-0.013719
-0.011946
-0.011000
0.000000
0.000000
0.000000
0.000000
-0.012318
-0.011577
-0.010017
-0.007297
-0.005998
-0.004166
-0.003577
-0.004640
-0.004385
-0.003091
-0.001349
0.010484
0.000000
0.000000
0.000000
0.000000
0.000000
0.000000
0.000000
0.001526
0.011057
0.033996
0.070485
0.113251
0.149667
0.168715
0.169849
0.154472
0.119595
0.072490
0.022897
-0.020680
-0.053662
-0.074986
-0.085986
-0.089175
-0.088627
-0.083775
-0.075032
-0.063670
-0.051032
-0.038094
-0.026043
-0.015742
-0.007751
-0.002133
0.001214
0.002676
0.002881
0.002823
0.002366
0.001618
0.000781
0.000033
-0.000525
-0.000916
-0.001216
-0.001451
-0.001557
-0.001873
0.000000
0.000000
0.000000
0.000000
0.016346
0.053279
0.100509
0.134871
0.154012
0.155586
0.153912
0.153043
0.137826
0.097597
0.049431
0.003987
-0.034737
-0.062990
-0.064797
-0.058314
-0.051374
-0.046867
-0.043072
-0.038624
-0.037077
-0.034422
-0.029213
-0.023914
-0.019837
-0.017657
-0.016992
-0.016692
-0.016530
-0.017172
-0.018391
-0.019904
-0.019222
-0.014757
-0.010025
-0.006936
-0.004794
-0.001084
-0.000303
-0.002774
0.000000
0.000000
0.000000
0.000000
0.003021
0.024587
0.076525
0.097133
0.000000
0.000000
0.000000
0.000000
0.003172
0.016016
0.042781
0.081729
0.123938
0.156754
0.171964
0.169785
0.150233
0.113429
0.067023
0.020262
-0.019998
-0.050428
-0.070808
-0.082628
-0.087217
-0.087368
-0.084497
-0.078116
-0.068542
-0.056883
-0.044604
-0.032642
-0.021771
-0.012559
-0.005572
-0.000898
0.001742
0.002900
0.003119
0.002900
0.002417
0.001804
0.001190
0.000645
0.000111
-0.000411
-0.000836
-0.001628
0.000000
0.000000
0.000000
0.000000
0.000000
0.000000
0.000000
0.000000
0.128637
0.130928
0.156921
0.150107
0.149355
0.127069
0.087064
0.042806
0.001738
-0.033400
-0.056625
-0.056723
-0.051264
-0.047445
-0.042671
-0.038506
-0.033927
-0.032808
-0.034285
-0.032411
-0.029115
-0.025944
-0.023836
-0.022457
-0.020358
-0.019363
-0.018429
-0.018158
-0.017205
-0.015753
-0.015566
-0.014376
-0.011608
-0.007927
-0.006437
-0.005757
-0.004268
-0.003190
-0.002769
-0.003287
-0.003728
-0.003944
-0.003965
-0.003425
-0.002964
-0.000032
0.001599
0.002495
0.000285
0.005240
0.021134
0.050888
0.091141
0.132020
0.161429
0.171625
0.168247
0.146654
0.109747
0.065311
0.021576
-0.015677
-0.044249
-0.064492
-0.077477
-0.084464
-0.086532
-0.084907
-0.080390
-0.072967
-0.063395
-0.052382
-0.040837
-0.029667
-0.019820
-0.011797
-0.005735
-0.001524
0.001015
0.002214
0.002567
0.002423
0.001956
0.001459
0.000909
0.000214
-0.000404
-0.001662
0.000000
0.000000
0.000000
0.000000
0.000000
0.000000
0.000000
0.000000
0.000000
0.000000
0.000000
0.000755
0.003714
0.003493
0.000000
0.000000
0.000000
0.000000
0.000000
0.000000
0.000000
0.000000
0.000000
0.000000
0.000000
0.000000
0.000000
0.000000
0.000000
0.000000
0.000000
0.000000
0.000000
0.000000
0.000000
0.000000
0.000000
0.000000
0.000000
0.000000
0.000000
0.000000
0.000000
0.000000
0.000000
0.000000
0.000000
0.000000
0.000000
0.000000
0.000000
0.000000
0.000000
0.000000
0.000000
0.000000
0.000000
0.000000
0.000000
0.000000
0.057754
0.098352
0.137477
0.163837
0.171791
0.165956
0.144326
0.108689
0.066929
0.026431
-0.008046
-0.035241
-0.055704
-0.070240
-0.079288
-0.082935
-0.083276
-0.081134
-0.076434
-0.069183
-0.060084
-0.049862
-0.039419
-0.029504
-0.020675
-0.013390
-0.007900
-0.004075
-0.001605
-0.000168
0.000491
0.000695
0.000471
-0.000089
-0.000804
-0.002263
0.000000
0.000000
0.000000
0.000000
0.000000
0.000000
0.000000
0.000000
0.000000
0.000000
0.000000
0.000000
0.001368
0.009736
0.029999
0.062921
0.000000
0.000000
0.000000
0.000000
0.000000
0.000000
0.000000
0.000000
0.000000
0.000000
0.000000
0.000000
0.000000
0.000000
0.000000
0.000000
0.000000
0.000000
0.000000
0.000000
0.000000
0.000000
0.000000
0.000000
0.000000
0.000000
0.000000
0.000000
0.000000
0.000000
0.000000
0.000000
0.000000
0.000000
0.000000
0.000000
0.000000
0.000000
0.000000
0.000000
0.000000
0.000000
0.000000
0.000000
0.000000
0.000000
0.000000
0.000000
0.164245
0.171118
0.164127
0.143136
0.109659
0.071223
0.034367
0.002451
-0.023662
-0.044371
-0.060020
-0.071057
-0.077939
-0.080598
-0.079841
-0.077390
-0.072899
-0.066187
-0.058008
-0.049035
-0.039869
-0.031127
-0.023390
-0.016974
-0.012021
-0.008327
-0.005674
-0.003940
-0.002984
-0.002541
-0.002479
-0.002865
0.000000
0.000000
0.000000
0.000000
0.000000
0.000000
0.000000
0.000000
0.000000
0.000000
0.000000
0.000000
0.000000
0.002009
0.011559
0.032919
0.066088
0.105319
0.140713
0.162981
0.000000
0.000000
0.000000
0.000000
0.000000
0.000000
0.000000
0.000000
0.000000
0.000000
0.000000
0.000000
0.000000
0.000000
0.000000
0.000000
0.000000
0.000000
0.000000
0.000000
0.000000
0.000000
0.000000
0.000000
0.000000
0.000000
0.000000
0.000000
0.000000
0.000000
0.000000
0.000000
0.000000
0.000000
0.000000
0.000000
0.000000
0.000000
0.000000
0.000000
0.000000
0.000000
0.000000
0.000000
0.000000
0.000000
0.000000
0.000000
0.142848
0.112616
0.078201
0.044699
0.015070
-0.009786
-0.030057
-0.046452
-0.059461
-0.068826
-0.074308
-0.076285
-0.075796
-0.073134
-0.068899
-0.063202
-0.056196
-0.048383
-0.040443
-0.033003
-0.026389
-0.020663
-0.015839
-0.011993
-0.009047
-0.006663
-0.004692
-0.002711
0.000000
0.000000
0.000000
0.000000
0.000000
0.000000
0.000000
0.000000
0.000000
0.000000
0.000000
0.000000
0.000000
0.000002
0.002533
0.012779
0.034460
0.067096
0.104942
0.138771
0.160110
0.166499
0.160680
0.143485
0.000000
0.000000
0.000000
0.000000
0.000000
0.000000
0.000000
0.000000
0.000000
0.000000
0.000000
0.000000
0.000000
0.000000
0.000000
0.000000
0.000000
0.000000
0.000000
0.000000
0.000000
0.000000
0.000000
0.000000
0.000000
0.000000
0.000000
0.000000
0.000000
0.000000
0.000000
0.000000
0.000000
0.000000
0.000000
0.000000
0.000000
0.000000
0.000000
0.000000
0.000000
0.000000
0.000000
0.000000
0.000000
0.000000
0.000000
0.000000
0.056414
0.029545
0.006504
-0.013147
-0.029867
-0.043825
-0.055025
-0.063038
-0.067885
-0.069982
-0.069573
-0.066874
-0.063164
-0.058155
-0.052080
-0.045481
-0.038820
-0.032274
-0.025973
-0.020238
-0.015090
-0.010157
-0.005833
-0.000450
0.000000
0.000000
0.000000
0.000000
0.000000
0.000000
0.000000
0.000000
0.000000
0.000000
0.000000
0.000000
0.000000
0.000000
0.000059
0.002838
0.013242
0.034496
0.065911
0.102062
0.134530
0.155740
0.162694
0.159214
0.144758
0.122077
0.095796
0.069563
0.000000
0.000000
0.000000
0.000000
0.000000
0.000000
0.000000
0.000000
0.000000
0.000000
0.000000
0.000000
0.000000
0.000000
0.000000
0.000000
0.000000
0.000000
0.000000
0.000000
0.000000
0.000000
0.000000
0.000000
0.000000
0.000000
0.000000
0.000000
0.000000
0.000000
0.000000
0.000000
0.000000
0.000000
0.000000
0.000000
0.000000
0.000000
0.000000
0.000000
0.000000
0.000000
0.000000
0.000000
0.000000
0.000000
0.000000
0.000000
0.005669
-0.010571
-0.024889
-0.036841
-0.046251
-0.053269
-0.058004
-0.060151
-0.060012
-0.057950
-0.054298
-0.049057
-0.043681
-0.037734
-0.031186
-0.024501
-0.017764
-0.010874
-0.004892
0.004706
0.000000
0.000000
0.000000
0.000000
0.000000
0.000000
0.000000
0.000000
0.000000
0.000000
0.000000
0.000000
0.000000
0.000000
0.000000
0.000087
0.002869
0.012891
0.033027
0.062611
0.096782
0.128035
0.149574
0.157822
0.155561
0.144912
0.127335
0.105111
0.082295
0.061266
0.042226
0.025104
0.000000
0.000000
0.000000
0.000000
0.000000
0.000000
0.000000
0.000000
0.000000
0.000000
0.000000
0.000000
0.000000