# vtk DataFile Version 3.0
Created by write_to_vtk2d
ASCII
DATASET STRUCTURED_POINTS
DIMENSIONS 100 100 1
SPACING 1.000000 1.000000 0.0
ORIGIN 0.000000 0.000000 0.0
POINT_DATA 10000
SCALARS p float 1
LOOKUP_TABLE p_table
0.093949
0.094381
0.092131
0.088652
0.078840
0.057973
0.027866
-0.009662
-0.033121
-0.032677
-0.016651
0.002467
0.000000
0.000000
0.000000
0.000000
0.009024
0.001755
0.000161
-0.000540
-0.001343
-0.002179
-0.003280
-0.004371
-0.005198
-0.005903
-0.005780
-0.005915
-0.004613
-0.003468
-0.002967
-0.002066
-0.001304
-0.000782
-0.000469
0.001935
0.000790
0.003530
0.005496
0.007426
0.010587
0.014777
0.015985
0.020265
0.025459
0.030919
0.036162
0.029122
0.028498
0.010724
0.008564
0.020882
0.036640
0.051860
0.063543
0.071065
0.075117
0.075131
0.069032
0.050109
0.020188
-0.010785
-0.030897
-0.035368
-0.029536
-0.017256
-0.006084
-0.001094
-0.001461
-0.003933
-0.006759
-0.008872
-0.010387
-0.011703
-0.012979
-0.014222
-0.015428
-0.016594
-0.017782
-0.019100
-0.019519
-0.020309
-0.021507
-0.023723
-0.025352
-0.026816
-0.028080
-0.029344
-0.029788
-0.037618
0.000000
0.000000
0.000000
0.000000
0.000000
0.000000
0.000000
0.000000
0.000000
0.002108
0.009842
0.024309
-0.003579
-0.045008
-0.050110
-0.071814
-0.064356
-0.045325
-0.021802
-0.006232
-0.002492
-0.005773
-0.010883
-0.013496
-0.012178
-0.009678
-0.008359
-0.009907
-0.008459
-0.010098
0.000000
0.000000
0.000000
0.000000
-0.024078
-0.020101
-0.019065
-0.017448
-0.016522
-0.015722
-0.016198
-0.015280
-0.017876
-0.017414
-0.019156
-0.021181
-0.021541
-0.026233
-0.027902
-0.028652
-0.025199
-0.021963
-0.011563
0.008683
0.043291
0.057593
0.057804
0.030879
-0.019316
-0.027597
0.072043
0.078329
0.080206
0.078622
0.069317
0.045598
0.010349
-0.024499
-0.044906
-0.047569
-0.037557
-0.019903
-0.005035
0.001406
0.001005
-0.002078
-0.005634
-0.008259
-0.009964
-0.011277
-0.012499
-0.013625
-0.014701
-0.015780
-0.016820
-0.017870
-0.018793
-0.019566
-0.020433
-0.022078
-0.023803
-0.025461
-0.026913
-0.028328
-0.029550
-0.035700
0.000000
0.000000
0.000000
0.000000
0.000000
0.000000
0.000000
0.000000
0.000000
0.002062
0.010411
0.026502
0.047355
0.066970
0.080077
0.085615
-0.044448
-0.007373
-0.020257
-0.011474
-0.012490
-0.018537
-0.023651
-0.026014
-0.020762
-0.016505
-0.012988
-0.014614
-0.017262
-0.019302
-0.020627
-0.019851
-0.019115
-0.017285
-0.012864
-0.011276
-0.008907
-0.006015
-0.003741
-0.002341
-0.002484
0.000530
0.000000
0.000000
0.000000
0.000000
-0.031844
-0.030268
-0.029811
-0.030643
-0.026590
-0.018482
-0.005139
0.016480
0.052440
0.077319
0.094023
0.098047
0.091109
0.078682
0.063086
0.053876
0.034661
0.037549
0.070428
0.043101
0.003930
-0.034593
-0.056922
-0.058953
-0.046192
-0.024452
-0.005661
0.002944
0.003145
-0.000033
-0.004086
-0.007278
-0.009405
-0.010928
-0.012206
-0.013279
-0.014236
-0.015223
-0.016269
-0.017387
-0.018364
-0.019404
-0.020202
-0.021163
-0.022394
-0.023931
-0.025263
-0.026745
-0.027885
-0.033815
0.000000
0.000000
0.000000
0.000000
0.000000
0.000000
0.000000
0.000000
0.000000
0.001777
0.010186
0.027416
0.050580
0.072739
0.087485
0.092996
0.092104
0.087549
0.072535
0.042483
0.041753
0.042184
0.013201
0.006320
-0.005038
-0.010600
-0.016402
-0.018102
-0.021293
-0.025234
-0.024016
-0.021803
-0.019325
-0.017129
-0.014487
-0.014710
-0.014213
-0.012573
-0.011591
-0.011200
-0.012772
-0.011511
-0.018789
-0.018691
-0.023177
-0.023298
-0.018433
-0.022363
-0.026478
-0.027836
-0.029285
-0.030788
-0.026733
-0.023889
0.000000
0.000000
0.000000
0.000000
0.133934
0.123378
0.100163
0.068537
0.030410
-0.015414
-0.042797
-0.044977
-0.023138
-0.018874
-0.066559
-0.069526
-0.055854
-0.030966
-0.008276
0.003267
0.004725
0.001931
-0.002343
-0.006050
-0.008657
-0.010485
-0.011896
-0.012973
-0.013806
-0.014579
-0.015438
-0.016513
-0.017822
-0.018901
-0.019926
-0.020434
-0.021118
-0.022502
-0.024023
-0.025691
-0.026470
-0.032015
0.000000
0.000000
0.000000
0.000000
0.000000
0.000000
0.000000
0.000000
0.000000
0.001320
0.009241
0.026914
0.051982
0.077016
0.094225
0.100523
0.099289
0.093044
0.075958
0.043965
-0.000558
-0.045497
-0.073892
-0.079195
-0.015061
-0.015878
-0.000052
0.005870
0.004595
-0.001013
-0.009891
-0.016536
-0.023537
-0.024724
-0.022545
-0.021682
-0.020029
-0.016731
-0.014733
-0.013655
-0.013249
-0.013297
-0.019035
-0.019887
-0.025336
-0.024884
-0.018460
-0.020209
-0.023855
-0.025512
-0.027574
-0.024357
-0.010103
0.010608
0.047447
0.078972
0.104902
0.116168
0.115112
0.108895
0.092015
0.067261
0.036941
-0.004151
-0.033200
-0.031087
0.000000
0.000000
0.000000
0.000000
-0.034674
-0.026456
-0.013504
0.001876
0.004989
0.003329
-0.000534
-0.004415
-0.007386
-0.009599
-0.011315
-0.012591
-0.013478
-0.014223
-0.015015
-0.016109
-0.017639
-0.019155
-0.019700
-0.019428
-0.019571
-0.020675
-0.022087
-0.023764
-0.024734
-0.030236
0.000000
0.000000
0.000000
0.000000
0.000000
0.000000
0.000000
0.000000
0.000000
0.000808
0.007775
0.025054
0.051377
0.079445
0.099920
0.108045
0.106913
0.099491
0.080917
0.047578
0.001436
-0.046191
-0.078856
-0.087076
-0.076202
-0.050277
-0.021513
-0.002033
-0.006763
-0.015636
-0.024293
-0.022466
-0.017363
-0.012699
-0.010989
-0.010470
-0.010166
-0.010985
-0.012499
-0.014367
-0.016029
-0.015773
-0.019430
-0.020130
-0.024290
-0.022399
-0.016499
-0.016455
-0.017867
-0.019951
-0.023151
-0.023814
-0.011327
0.008848
0.045144
0.079398
0.109989
0.125921
0.131412
0.139501
0.141893
0.118571
0.061803
-0.009471
-0.069217
-0.086804
-0.085970
-0.079454
-0.063093
-0.035302
-0.014831
-0.008436
-0.009016
-0.008915
-0.010577
-0.011206
0.001078
-0.002417
-0.005475
-0.008010
-0.010125
-0.011762
-0.012875
-0.013736
-0.014428
-0.015265
-0.016980
-0.018535
-0.019205
-0.019499
-0.019730
-0.020033
-0.020594
-0.021671
-0.022370
-0.028480
0.000000
0.000000
0.000000
0.000000
0.000000
0.000000
0.000000
0.000000
0.000000
0.000362
0.005935
0.022094
0.048967
0.079749
0.104197
0.115183
0.114762
0.107093
0.087495
0.053295
0.006122
-0.043774
-0.080563
-0.091867
-0.086069
-0.061987
-0.031923
-0.008561
0.002273
0.003661
0.002035
-0.000646
-0.001255
-0.004170
-0.011071
-0.013721
0.000000
0.000000
0.000000
0.000000
-0.017491
-0.014656
-0.020481
-0.020797
-0.025895
-0.025175
-0.019918
-0.022393
-0.023525
-0.024644
-0.025030
-0.024300
-0.016634
0.003106
0.040227
0.076052
0.110639
0.131124
0.139248
0.150279
0.155953
0.133568
0.076743
0.003870
-0.061695
-0.089669
-0.094338
-0.095984
-0.088441
-0.059378
-0.032550
-0.019960
-0.015742
-0.012161
-0.006231
-0.001104
-0.005101
-0.006977
-0.014324
-0.013718
-0.008753
-0.010919
-0.012456
-0.013427
-0.014111
-0.014700
-0.016063
-0.017058
-0.018393
-0.018823
-0.018903
-0.019115
-0.019385
-0.020135
-0.020684
-0.026481
0.000000
0.000000
0.000000
0.000000
0.000000
0.000000
0.000000
0.000000
0.000000
0.000033
0.004001
0.018231
0.044583
0.077594
0.106388
0.121812
0.123144
0.115643
0.095808
0.061291
0.013683
-0.038323
-0.079552
-0.098171
-0.094736
-0.074196
-0.044184
-0.017488
-0.002060
0.002596
0.002229
0.000518
-0.001556
-0.003977
-0.006707
-0.009352
-0.024092
-0.022997
-0.020308
-0.017939
-0.017723
-0.015029
-0.018154
-0.018430
-0.023073
-0.022729
-0.017543
-0.016653
0.000000
0.000000
0.000000
0.000000
-0.018084
0.003474
0.035814
0.071822
0.110646
0.137393
0.149309
0.162871
0.170357
0.151247
0.097149
0.023342
-0.048301
-0.089799
-0.095181
-0.098960
-0.099011
-0.076439
-0.048588
-0.030731
-0.022344
-0.015655
-0.006708
0.001420
-0.000525
-0.006369
-0.010895
-0.011112
-0.010395
-0.011290
-0.016225
-0.011422
-0.013574
-0.013979
-0.014763
-0.015848
-0.017130
-0.018109
-0.018698
-0.018881
-0.018824
-0.019099
-0.019060
-0.024161
0.000000
0.000000
0.000000
0.000000
0.000000
0.000000
0.000000
0.000000
0.000000
0.000000
0.002234
0.013837
0.038588
0.072779
0.105874
0.126894
0.130845
0.125058
0.105738
0.071524
0.023909
-0.029703
-0.075391
-0.099546
-0.101191
-0.085495
-0.057388
-0.028934
-0.009229
-0.000305
0.001205
0.000815
-0.000319
-0.002002
-0.004373
-0.007151
-0.009735
-0.011707
-0.012922
-0.013494
-0.021855
-0.017323
-0.021376
-0.020303
-0.021061
-0.022939
-0.021009
-0.018740
-0.016190
-0.015122
-0.015743
-0.015953
-0.014500
-0.000427
0.027816
0.059889
0.095303
0.117734
0.118357
0.114231
0.000000
0.000000
0.000000
0.000000
-0.016086
-0.088642
-0.098441
-0.101692
-0.105761
-0.094783
-0.067775
-0.045040
-0.031769
-0.022182
-0.011856
-0.001485
0.001112
-0.003946
-0.010568
-0.015214
-0.017812
-0.017288
-0.015289
-0.014054
-0.011593
-0.010732
-0.013138
-0.012157
-0.015839
-0.016900
-0.017782
-0.018023
-0.018099
-0.018299
-0.018031
-0.022550
0.000000
0.000000
0.000000
0.000000
0.000000
0.000000
0.000000
0.000000
0.000000
0.000000
0.000907
0.009429
0.031277
0.065363
0.102342
0.129433
0.139318
0.135018
0.117326
0.083934
0.036751
-0.017816
-0.067316
-0.098228
-0.105270
-0.095280
-0.071175
-0.042310
-0.019085
-0.005880
-0.000888
0.000069
-0.000165
-0.000858
-0.002314
-0.004624
-0.007320
-0.009847
-0.011693
-0.012686
-0.013455
-0.013841
-0.014634
-0.015481
-0.019235
-0.017437
-0.019852
-0.021265
-0.018036
-0.017158
-0.018061
-0.017487
-0.015855
-0.005038
0.022929
0.052326
0.093371
0.132194
0.155015
0.159974
0.162054
0.158386
0.126110
0.057965
-0.018721
-0.079609
-0.097797
-0.091517
-0.068965
-0.040071
-0.021354
-0.022319
0.000000
0.000000
0.000000
0.000000
-0.000414
-0.000634
-0.006399
-0.011560
-0.016316
-0.019435
-0.020340
-0.018932
-0.016775
-0.015052
-0.013664
-0.012932
-0.012076
-0.011581
-0.012882
-0.011478
-0.017080
-0.017448
-0.017565
-0.021589
0.000000
0.000000
0.000000
0.000000
0.000000
0.000000
0.000000
0.000000
0.000000
0.000000
0.000157
0.005485
0.023362
0.055603
0.095030
0.128636
0.145465
0.144943
0.130104
0.098544
0.052371
-0.002514
-0.055387
-0.092796
-0.106708
-0.103221
-0.084437
-0.056944
-0.031410
-0.014107
-0.005300
-0.001903
-0.000832
-0.000652
-0.001071
-0.002406
-0.004626
-0.007257
-0.009648
-0.011360
-0.012494
-0.013142
-0.013915
-0.014480
-0.015192
-0.015696
-0.016131
-0.016635
-0.017035
-0.015806
-0.016207
-0.016967
-0.016537
-0.010831
0.015198
0.039621
0.078950
0.122478
0.155070
0.169251
0.183935
0.191737
0.165539
0.100406
0.020720
-0.052235
-0.096858
-0.097852
-0.099215
-0.101404
-0.095721
-0.072972
-0.050983
-0.034163
-0.019266
-0.004845
0.005770
0.003315
-0.003762
-0.008048
-0.006649
-0.004383
-0.006056
-0.009328
0.000000
0.000000
0.000000
0.000000
-0.013195
-0.011052
-0.011588
-0.008342
-0.011405
-0.013194
-0.011931
-0.013283
0.000000
0.000000
0.000000
0.000000
0.000000
0.000000
0.000000
0.000000
0.000000
0.000000
0.000000
0.002493
0.015647
0.044174
0.084224
0.123532
0.148851
0.153692
0.143554
0.115335
0.070815
0.016031
-0.039572
-0.083795
-0.106354
-0.108378
-0.096048
-0.072153
-0.045925
-0.024995
-0.012088
-0.005589
-0.002607
-0.001217
-0.000860
-0.001258
-0.002668
-0.004863
-0.007297
-0.009419
-0.010953
-0.011889
-0.012735
-0.013329
-0.013975
-0.014478
-0.014898
-0.015386
-0.014987
-0.018315
0.000000
0.000000
-0.012723
-0.013271
0.007962
0.029341
0.063933
0.108419
0.147409
0.167911
0.174777
0.184803
0.180108
0.128401
0.051693
-0.026338
-0.085512
-0.100208
-0.098059
-0.098521
-0.098953
-0.089586
-0.069828
-0.050711
-0.033298
-0.016749
-0.002378
0.004603
-0.001881
-0.008604
-0.014481
-0.018527
-0.020466
-0.018766
-0.015712
-0.014088
-0.012861
-0.012999
-0.012322
-0.010656
-0.010615
-0.006706
-0.009775
-0.009055
-0.008659
-0.010342
0.000000
0.000000
0.000000
0.000000
0.000000
0.000000
0.000000
0.000000
0.000000
0.000000
0.000000
0.000686
0.008985
0.032134
0.070204
0.113588
0.147360
0.161675
0.156693
0.133534
0.091852
0.037523
-0.020282
-0.070129
-0.101467
-0.109829
-0.104882
-0.086676
-0.061918
-0.038647
-0.021739
-0.011543
-0.005911
-0.002771
-0.001126
-0.000760
-0.001273
-0.002707
-0.004796
-0.007097
-0.009094
-0.010435
-0.011494
-0.012116
-0.012784
-0.013225
-0.013640
-0.014108
-0.013737
-0.016727
0.000000
0.000000
0.000000
0.000000
0.000000
0.000000
0.000000
0.000000
0.138503
0.167978
0.179549
0.188625
0.191578
0.159290
0.088989
0.007746
-0.062623
-0.099422
-0.098841
-0.097250
-0.095831
-0.093628
-0.083359
-0.065441
-0.046328
-0.027544
-0.010668
0.001530
0.000850
-0.006537
-0.012399
-0.017378
-0.018705
-0.015895
-0.012744
-0.012041
-0.011109
-0.010805
-0.010623
-0.010587
-0.011549
-0.007329
-0.009514
-0.010604
-0.011846
-0.013642
-0.015425
-0.015930
-0.015349
-0.014822
-0.004330
0.023224
0.101776
0.118670
0.000000
0.000000
0.000000
0.000000
0.004021
0.020759
0.054135
0.098689
0.140393
0.164292
0.167237
0.151721
0.114949
0.062259
0.003207
-0.051202
-0.090570
-0.109112
-0.109926
-0.098578
-0.077844
-0.054641
-0.034716
-0.020633
-0.011766
-0.006382
-0.003083
-0.001400
-0.000924
-0.001333
-0.002587
-0.004566
-0.006739
-0.008457
-0.009829
-0.010655
-0.011418
-0.011850
-0.012283
-0.012729
-0.012429
-0.015101
0.000000
0.000000
0.000000
0.000000
0.000000
0.000000
0.000000
0.000000
0.000000
0.000000
0.131417
0.119763
0.142224
0.098517
0.077817
0.062078
0.000000
0.000000
0.000000
0.000000
-0.087552
-0.083450
-0.089444
-0.080912
-0.063607
-0.043254
-0.023475
-0.006898
0.002059
-0.002701
-0.010195
-0.014314
-0.017099
-0.015597
-0.011698
-0.010064
-0.009820
-0.009745
-0.009148
-0.008175
-0.008705
-0.005378
-0.006560
-0.008676
-0.010587
-0.012443
-0.014408
-0.015843
-0.016447
-0.015933
-0.015220
-0.012900
-0.008256
0.005859
0.028978
0.048637
0.132913
0.105415
0.001115
0.011326
0.037742
0.079778
0.126646
0.161846
0.174018
0.167749
0.139031
0.090454
0.031794
-0.026401
-0.073702
-0.102266
-0.110044
-0.106439
-0.092367
-0.071704
-0.050434
-0.032854
-0.020239
-0.011925
-0.006517
-0.003231
-0.001521
-0.001137
-0.001527
-0.002794
-0.004654
-0.006404
-0.007950
-0.008998
-0.009884
-0.010459
-0.010858
-0.011280
-0.011059
-0.013401
0.000000
0.000000
0.000000
0.000000
0.000000
0.000000
0.000000
0.000000
0.000000
0.000000
0.000000
0.000000
0.000000
0.004679
0.084321
0.033168
0.004203
-0.066697
-0.098284
-0.096255
-0.092416
-0.084320
-0.064451
-0.042683
-0.027321
-0.019264
-0.013201
-0.009169
0.000000
0.000000
0.000000
0.000000
-0.016552
-0.015648
-0.014436
-0.012683
-0.010975
-0.010239
-0.010077
-0.009486
-0.010083
-0.006333
-0.007109
-0.008650
-0.010544
-0.013286
-0.017151
-0.019145
-0.018913
-0.017270
-0.015743
-0.015203
-0.014372
-0.009484
-0.002427
0.007626
0.017922
0.044294
0.068667
0.070488
0.013762
-0.024394
0.106676
0.151178
0.176366
0.179561
0.161872
0.121275
0.065219
0.004395
-0.050128
-0.089027
-0.107340
-0.109719
-0.103106
-0.087830
-0.068183
-0.048879
-0.032776
-0.020751
-0.012197
-0.006432
-0.002845
-0.001214
-0.001017
-0.001504
-0.002711
-0.004210
-0.005851
-0.007185
-0.008265
-0.008921
-0.009333
-0.009765
-0.009681
-0.011872
0.000000
0.000000
0.000000
0.000000
0.000000
0.000000
0.000000
0.000000
0.000000
0.000000
0.000000
0.000000
0.000000
0.001109
0.011431
0.038536
0.082384
0.132247
-0.061544
-0.097478
-0.120114
-0.116067
-0.099950
-0.085965
-0.076011
-0.066127
-0.043443
-0.024872
-0.012094
-0.001542
-0.001167
-0.009972
-0.014510
-0.016624
-0.013685
-0.005838
-0.002212
-0.002530
-0.003354
-0.004673
0.000000
0.000000
0.000000
0.000000
-0.008964
-0.007895
-0.009573
-0.011679
-0.016116
-0.020038
-0.022875
-0.025371
-0.026639
-0.024594
-0.017063
-0.011760
-0.002307
0.012397
0.044047
0.097977
0.146204
0.169928
0.159384
0.109747
0.008684
-0.024469
0.180294
0.151358
0.101133
0.040374
-0.019007
-0.066844
-0.096856
-0.108787
-0.108219
-0.099707
-0.085053
-0.067234
-0.049540
-0.034271
-0.022097
-0.012966
-0.006426
-0.002475
-0.000845
-0.000598
-0.000984
-0.001899
-0.003425
-0.004989
-0.006339
-0.007232
-0.007759
-0.008243
-0.008310
-0.010564
0.000000
0.000000
0.000000
0.000000
0.000000
0.000000
0.000000
0.000000
0.000000
0.000000
0.000000
0.000000
0.000000
0.000000
0.004040
0.021338
0.056914
0.106132
0.154267
0.185440
0.192244
0.175950
-0.028250
-0.014268
-0.072185
-0.087267
-0.082968
-0.063950
-0.040916
-0.021169
-0.007617
-0.003162
-0.010760
-0.014878
-0.015166
-0.014623
-0.013683
-0.013471
-0.013641
-0.012755
-0.011987
-0.007824
-0.007604
-0.008332
-0.008104
-0.008344
-0.008894
-0.009078
-0.009285
-0.010149
-0.010620
-0.014408
0.000000
0.000000
0.000000
0.000000
0.000000
0.002531
0.021175
0.059761
0.109892
0.159402
0.189022
0.189667
0.164836
0.115309
0.066225
0.031291
-0.022539
-0.024484
0.019401
-0.035554
-0.076579
-0.099975
-0.106897
-0.106207
-0.098154
-0.084794
-0.068489
-0.052046
-0.037142
-0.024499
-0.014320
-0.007008
-0.002639
-0.000503
0.000154
-0.000007
-0.001009
-0.002401
-0.003826
-0.004994
-0.005846
-0.006551
-0.007016
-0.009517
0.000000
0.000000
0.000000
0.000000
0.000000
0.000000
0.000000
0.000000
0.000000
0.000000
0.000000
0.000000
0.000000
0.000000
0.000666
0.009134
0.033834
0.076483
0.128130
0.172238
0.194651
0.192918
0.168571
0.122606
0.063980
0.004599
-0.039617
0.003698
-0.010557
-0.005419
-0.015270
-0.018229
-0.018008
-0.015934
-0.019864
-0.020310
-0.018618
-0.013946
-0.010876
-0.011050
-0.012132
-0.009151
-0.010630
-0.012436
-0.011935
-0.011082
-0.011095
-0.012336
-0.014594
-0.017452
-0.019916
-0.021811
-0.023433
-0.023378
-0.023939
-0.021218
-0.015532
-0.008431
0.002896
0.030043
0.072388
0.117867
0.145935
0.153713
0.000000
0.000000
0.000000
0.000000
0.058990
-0.014654
-0.051091
-0.070465
-0.066387
-0.033265
-0.099879
-0.105555
-0.104910
-0.098075
-0.086524
-0.072293
-0.057014
-0.041989
-0.028612
-0.017708
-0.009451
-0.003647
-0.000405
0.000714
0.000590
-0.000085
-0.001196
-0.002474
-0.003710
-0.004887
-0.005871
-0.008760
0.000000
0.000000
0.000000
0.000000
0.000000
0.000000
0.000000
0.000000
0.000000
0.000000
0.000000
0.000000
0.000000
0.000000
0.000000
0.002422
0.016192
0.047884
0.095655
0.147215
0.184689
0.196293
0.190989
0.160747
0.109978
0.051157
-0.004328
-0.048845
-0.079450
-0.096795
-0.043394
-0.013339
0.001233
-0.002621
-0.008776
-0.016467
-0.019409
-0.022632
-0.023606
-0.023207
-0.023230
-0.021252
-0.018864
-0.016823
-0.014311
-0.012198
-0.010505
-0.010638
-0.012412
-0.015554
-0.019173
-0.021772
-0.023076
-0.022835
-0.023673
-0.018501
-0.010187
-0.001796
0.005353
0.013016
0.040898
0.091131
0.140700
0.176794
0.189907
0.185665
0.179414
0.165055
0.121113
0.064045
0.010274
-0.032106
-0.060749
-0.070593
-0.055358
-0.033753
0.000000
0.000000
-0.098599
-0.090151
-0.077779
-0.063520
-0.049307
-0.035900
-0.023980
-0.014087
-0.006924
-0.002407
-0.000159
0.000548
0.000069
-0.000929
-0.002175
-0.003718
-0.004970
-0.008645
0.000000
0.000000
0.000000
0.000000
0.000000
0.000000
0.000000
0.000000
0.000000
0.000000
0.000000
0.000000
0.000000
0.000000
0.000000
0.000094
0.005368
0.024641
0.062229
0.112923
0.161932
0.193673
0.201194
0.187670
0.151949
0.100074
0.043712
-0.006890
-0.046631
-0.074367
-0.091297
-0.099459
-0.101501
-0.099103
0.000000
0.000000
0.000000
0.000000
-0.019585
-0.013897
-0.021331
-0.024817
-0.029766
-0.030058
-0.026503
-0.022267
-0.017987
-0.015775
-0.015313
-0.016005
-0.018534
-0.021644
-0.023019
-0.023017
-0.022158
-0.014228
-0.005113
0.004350
0.007514
0.010539
0.016425
0.046534
0.099070
0.148859
0.178905
0.183445
0.180384
0.176448
0.163567
0.121628
0.070419
0.021746
-0.020821
-0.055164
-0.069628
-0.067285
-0.058072
-0.050131
-0.035051
-0.023090
-0.021557
-0.016176
-0.071825
-0.058776
-0.045617
-0.033272
-0.022661
-0.014095
-0.007956
-0.004230
-0.002413
-0.001996
-0.002608
-0.004049
-0.005436
-0.009847
0.000000
0.000000
0.000000
0.000000
0.000000
0.000000
0.000000
0.000000
0.000000
0.000000
0.000000
0.000000
0.000000
0.000000
0.000000
0.000000
0.000769
0.009306
0.033602
0.075572
0.127269
0.172959
0.197729
0.200572
0.183799
0.145671
0.094977
0.042501
-0.003293
-0.039136
-0.065100
-0.082630
-0.093142
-0.097511
-0.097347
-0.094499
-0.088305
-0.079361
-0.007567
-0.008177
-0.015710
-0.012804
-0.009205
-0.006539
-0.004491
-0.005711
0.000000
0.000000
0.000000
0.000000
-0.013629
-0.013136
-0.016078
-0.020322
-0.020321
-0.011545
-0.000806
0.007338
0.009080
0.009096
0.010123
0.017318
0.050454
0.103743
0.152993
0.177113
0.178560
0.174089
0.166928
0.153805
0.116482
0.072425
0.030159
-0.006883
-0.037921
-0.055725
-0.052468
-0.045728
-0.043965
-0.038519
-0.026909
-0.022077
-0.027154
-0.031154
-0.023679
-0.024604
-0.045185
-0.034212
-0.024840
-0.017575
-0.012583
-0.009575
-0.008090
-0.007893
-0.008465
-0.011626
0.000000
0.000000
0.000000
0.000000
0.000000
0.000000
0.000000
0.000000
0.000000
0.000000
0.000000
0.000000
0.000000
0.000000
0.000000
0.000000
0.000000
0.001880
0.013711
0.042142
0.086886
0.138071
0.179836
0.200378
0.199675
0.179566
0.141390
0.093731
0.046169
0.005266
-0.027042
-0.051634
-0.069968
-0.083207
-0.091415
-0.094154
-0.092752
-0.089654
-0.084065
-0.076088
-0.066802
-0.056507
-0.013927
-0.016261
-0.015694
-0.011418
-0.006175
-0.009394
-0.014569
-0.020485
-0.025827
-0.026980
-0.026595
-0.023455
-0.013714
-0.001041
0.008118
0.013492
0.000000
0.000000
0.000000
0.000000
0.013620
0.050592
0.103429
0.151803
0.171844
0.173321
0.167089
0.157221
0.144949
0.113350
0.075759
0.039147
0.006808
-0.020146
-0.038858
-0.037432
-0.032721
-0.033258
-0.031284
-0.025712
-0.018966
-0.019845
-0.025045
-0.031089
-0.033162
-0.030957
-0.030281
-0.024339
-0.029000
-0.022823
-0.018231
-0.014958
-0.012454
-0.011144
0.000000
0.000000
0.000000
0.000000
0.000000
0.000000
0.000000
0.000000
0.000000
0.000000
0.000000
0.000000
0.000000
0.000000
0.000000
0.000000
0.000000
0.000000
0.003336
0.018009
0.049396
0.095383
0.145019
0.183223
0.200099
0.197675
0.176254
0.139922
0.096339
0.053819
0.017765
-0.011160
-0.034284
-0.053167
-0.068223
-0.078900
-0.085051
-0.087401
-0.086703
-0.082784
-0.077878
-0.071034
-0.062701
-0.053619
-0.044729
-0.036468
-0.019247
-0.023016
-0.015380
-0.012474
-0.011473
-0.015053
-0.018095
-0.017753
-0.009685
0.001260
0.007078
0.010240
0.009844
0.008382
0.006723
0.006195
0.004515
0.017365
0.052270
0.098551
0.139703
0.154408
0.141192
0.123910
0.000000
0.000000
0.000000
0.000000
0.047261
0.007254
-0.012188
-0.025528
-0.021612
-0.016105
-0.018185
-0.018059
-0.015540
-0.010978
-0.010765
-0.012803
-0.016404
-0.020297
-0.024086
-0.026222
-0.028141
-0.033247
-0.026657
-0.014914
-0.015242
-0.009098
0.000000
0.000000
0.000000
0.000000
0.000000
0.000000
0.000000
0.000000
0.000000
0.000000
0.000000
0.000000
0.000000
0.000000
0.000000
0.000000
0.000000
0.000000
0.000129
0.004811
0.021615
0.054639
0.100555
0.148148
0.183430
0.196842
0.194749
0.174542
0.141142
0.101950
0.064845
0.033426
0.007648
-0.013851
-0.032089
-0.047374
-0.059714
-0.068599
-0.074068
-0.076349
-0.075707
-0.072612
-0.066824
-0.059556
-0.051827
-0.043105
-0.033471
-0.023280
-0.014482
-0.001480
-0.020317
-0.013758
-0.001229
0.004695
0.012343
0.011620
0.011184
0.010307
0.007817
0.005236
0.003215
0.001299
0.000445
0.000093
0.014706
0.047618
0.093419
0.139401
0.156814
0.159609
0.149441
0.138170
0.127774
0.108463
0.081304
0.053324
0.028940
0.010392
-0.000225
0.000749
0.004404
0.007012
0.000000
0.000000
0.000000
0.000000
0.000477
-0.006506
-0.009390
-0.010595
-0.010613
-0.012143
-0.007444
-0.017828
-0.020613
-0.022303
-0.023666
-0.019891
0.000000
0.000000
0.000000
0.000000
0.000000
0.000000
0.000000
0.000000
0.000000
0.000000
0.000000
0.000000
0.000000
0.000000
0.000000
0.000000
0.000000
0.000350
0.006025
0.024018
0.057390
0.102153
0.147434
0.180563
0.192968
0.191212
0.173167
0.143648
0.110138
0.078325
0.050601
0.027877
0.008971
-0.007586
-0.022257
-0.034538
-0.044305
-0.051583
-0.056182
-0.057778
-0.056549
-0.053010
-0.047191
-0.039288
-0.029849
-0.018634
-0.007588
0.012484
0.000000
0.000000
0.000000
0.000000
-0.010810
-0.009660
-0.001166
0.005253
0.006698
0.005688
0.003434
0.001313
0.000486
0.000020
-0.000001
0.011602
0.041400
0.083327
0.126102
0.146946
0.151393
0.141434
0.129961
0.120545
0.107774
0.087102
0.065112
0.044904
0.028884
0.018425
0.016553
0.021875
0.021675
0.019715
0.019768
0.020847
0.019078
0.015598
0.011772
0.008713
0.008531
0.008703
0.014145
0.010836
0.000000
0.000000
0.000000
0.000000
-0.006078
-0.009071
-0.015668
-0.009738
0.000000
0.000000
0.000000
0.000000
0.000000
0.000000
0.000000
0.000000
0.000000
0.000000
0.000000
0.000000
0.000000
0.000000
0.000535
0.006742
0.024911
0.057410
0.100135
0.142989
0.174742
0.187469
0.186107
0.171924
0.148117
0.119346
0.091798
0.068365
0.048709
0.032063
0.017795
0.005456
-0.005436
-0.014787
-0.022019
-0.026779
-0.029020
-0.028862
-0.026283
-0.021087
-0.013341
-0.002941
0.007521
0.031045
0.000000
0.000000
0.000000
0.000000
0.000000
0.000000
0.000000
0.000000
0.005234
0.007577
0.005742
0.009658
0.009868
0.007706
0.006331
0.010597
0.024608
0.050507
0.085698
0.119375
0.135807
0.141424
0.132897
0.122058
0.111203
0.102168
0.088552
0.071459
0.055023
0.042202
0.034403
0.032229
0.037150
0.040740
0.038773
0.037845
0.038584
0.037373
0.034337
0.031584
0.031506
0.031153
0.038232
0.027945
0.024981
0.022603
0.020613
0.018903
0.018525
0.018967
0.019050
0.019897
0.017058
0.025813
0.012989
0.023156
0.000000
0.000000
0.000000
0.000000
0.000000
0.000000
0.000000
0.000000
0.000000
0.000000
0.000000
0.000613
0.006797
0.024174
0.054716
0.094643
0.135024
0.165934
0.180399
0.181269
0.169826
0.150900
0.128157
0.105275
0.084511
0.067574
0.053944
0.042417
0.032146
0.023148
0.015822
0.010296
0.006607
0.004612
0.004795
0.007308
0.012108
0.019684
0.027095
0.049434
0.000000
0.000000
0.000000
0.000000
0.000000
0.000000
0.000000
0.000000
0.000000
0.000000
0.000000
0.000000
0.019330
0.013660
0.000000
0.000000
0.000000
0.000000
0.000000
0.000000
0.000000
0.000000
0.000000
0.000000
0.000000
0.000000
0.000000
0.000000
0.000000
0.000000
0.000000
0.000000
0.000000
0.000000
0.000000
0.000000
0.000000
0.000000
0.000000
0.000000
0.000000
0.000000
0.000000
0.000000
0.000000
0.000000
0.000000
0.000000
0.000000
0.000000
0.000000
0.000000
0.000000
0.000000
0.000000
0.000000
0.000000
0.000000
0.000000
0.000000
0.000000
0.000000
0.000000
0.000000
0.000000
0.000000
0.000000
0.000000
0.000563
0.006185
0.021919
0.049570
0.086012
0.123658
0.153913
0.170517
0.173337
0.166735
0.152672
0.134473
0.115293
0.098379
0.084349
0.072623
0.062743
0.054558
0.048009
0.042823
0.038817
0.036182
0.035040
0.035475
0.037422
0.041393
0.044375
0.062420
0.000000
0.000000
0.000000
0.000000
0.000000
0.000000
0.000000
0.000000
0.000000
0.000000
0.000000
0.000000
0.000000
0.000000
0.000000
0.000000
0.000000
0.000000
0.000000
0.000000
0.000000
0.000000
0.000000
0.000000
0.000000
0.000000
0.000000
0.000000
0.000000
0.000000
0.000000
0.000000
0.000000
0.000000
0.000000
0.000000
0.000000
0.000000
0.000000
0.000000
0.000000
0.000000
0.000000
0.000000
0.000000
0.000000
0.000000
0.000000
0.000000
0.000000
0.000000
0.000000
0.000000
0.000000
0.000000
0.000000
0.000000
0.000000
0.000000
0.000000
0.000000
0.000000
0.000000
0.000000
0.000000
0.000000
0.000000
0.000000
0.000000
0.000409
0.005040
0.018459
0.042466
0.074758
0.109218
0.138494
0.157157
0.163638
0.159996
0.150275
0.137006
0.122693
0.108901
0.096602
0.086307
0.077954
0.071270
0.065945
0.061785
0.058727
0.056719
0.055683
0.055434
0.055937
0.054906
0.068088
0.000000
0.000000
0.000000
0.000000
0.000000
0.000000
0.000000
0.000000
0.000000
0.000000
0.000000
0.000000
0.000000
0.000000
0.000000
0.000000
0.000000
0.000000
0.000000
0.000000
0.000000
0.000000
0.000000
0.000000
0.000000
0.000000
0.000000
0.000000
0.000000
0.000000
0.000000
0.000000
0.000000
0.000000
0.000000
0.000000
0.000000
0.000000
0.000000
0.000000
0.000000
0.000000
0.000000
0.000000
0.000000
0.000000
0.000000
0.000000
0.000000
0.000000
0.000000
0.000000
0.000000
0.000000
0.000000
0.000000
0.000000
0.000000
0.000000
0.000000
0.000000
0.000000
0.000000
0.000000
0.000000
0.000000
0.000000
0.000000
0.000000
0.000000
0.000212
0.003591
0.014265
0.034094
0.061678
0.092421
0.120285
0.140256
0.149491
0.150690
0.144388
0.135765
0.125197
0.114027
0.103729
0.094771
0.087201
0.080993
0.075952
0.071897
0.068690
0.066136
0.063972
0.062276
0.059715
0.068441
0.000000
0.000000
0.000000
0.000000
0.000000
0.000000
0.000000
0.000000
0.000000
0.000000
0.000000
0.000000
0.000000
0.000000
0.000000
0.000000
0.000000
0.000000
0.000000
0.000000
0.000000
0.000000
0.000000
0.000000
0.000000
0.000000
0.000000
0.000000
0.000000
0.000000
0.000000
0.000000
0.000000
0.000000
0.000000
0.000000
0.000000
0.000000
0.000000
0.000000
0.000000
0.000000
0.000000
0.000000
0.000000
0.000000
0.000000
0.000000
0.000000
0.000000
0.000000
0.000000
0.000000
0.000000
0.000000
0.000000
0.000000
0.000000
0.000000
0.000000
0.000000
0.000000
0.000000
0.000000
0.000000
0.000000
0.000000
0.000000
0.000000
0.000000
0.000000
0.000000
0.002151
0.009875
0.025280
0.047763
0.074094
0.099626
0.120198
0.133185
0.137987
0.136351
0.130391
0.122548
0.114100
0.105608
0.097583
0.090433
0.084186
0.078752
0.073972
0.069684
0.066127
0.063292
0.060294
0.063120
0.000000
0.000000
0.000000
0.000000
0.000000
0.000000
0.000000
0.000000
0.000000
0.000000
0.000000
0.000000
0.000000
0.000000
0.000000
0.000000
0.000000
0.000000
0.000000
0.000000
0.000000
0.000000
0.000000
0.000000
0.000000
0.000000
0.000000
0.000973
0.000000
0.000000
0.000000
0.000000
0.000000
0.000000
0.000000
0.000000
0.000000
0.000000
0.000000
0.000000
0.000000
0.000000
0.000000
0.000000
0.000000
0.000000
0.000000
0.000000
0.000000
0.000000
0.000000
0.000000
0.000000
0.000000
0.000000
0.000000
0.000000
0.000000
0.000000
0.000000
0.000000
0.000000
0.000000
0.000000
0.000000
0.000000
0.000000
0.000000
0.000000
0.000000
0.000000
0.000000
0.000000
0.000000
0.000000
0.000000
0.034096
0.055487
0.077724
0.097279
0.111748
0.119681
0.122722
0.121001
0.116092
0.109330
0.102000
0.095073
0.088341
0.081907
0.076028
0.070832
0.066059
0.061632
0.057445
0.054114
0.000000
0.000000
0.000000
0.000000
0.000000
0.000000
0.000000
0.000000
0.000000
0.000000
0.000000
0.000000
0.000000
0.000000
0.000000
0.000000
0.000000
0.000000
0.000000
0.000000
0.000000
0.000000
0.000000
0.000000
0.000000
0.000000
0.000000
0.000000
0.000250
0.002832
0.009856
0.021907
0.000000
0.000000
0.000000
0.000000
0.000000
0.000000
0.000000
0.000000
0.000000
0.000000
0.000000
0.000000
0.000000
0.000000
0.000000
0.000000
0.000000
0.000000
0.000000
0.000000
0.000000
0.000000
0.000000
0.000000
0.000000
0.000000
0.000000
0.000000
0.000000
0.000000
0.000000
0.000000
0.000000
0.000000
0.000000
0.000000
0.000000
0.000000
0.000000
0.000000
0.000000
0.000000
0.000000
0.000000
0.000000
0.000000
0.000000
0.000000
0.073277
0.087659
0.097887