# vtk DataFile Version 3.0
Created by write_to_vtk2d
ASCII
DATASET STRUCTURED_POINTS
DIMENSIONS 100 100 1
SPACING 1.000000 1.000000 0.0
ORIGIN 0.000000 0.000000 0.0
POINT_DATA 10000
SCALARS p float 1
LOOKUP_TABLE p_table
0.000520
0.000221
0.000051
0.000629
0.008874
0.030537
0.060902
0.086430
0.096346
0.090508
0.076362
0.075533
0.000000
0.000000
0.000000
0.000000
-0.076765
-0.122987
-0.108944
-0.070819
-0.022358
0.007351
0.015109
0.012398
0.007585
0.000600
-0.003521
-0.006681
-0.006465
-0.005001
-0.003794
-0.001733
-0.000029
0.002912
0.006270
0.008145
0.006875
0.009338
0.010519
0.012546
0.013048
0.012981
0.011849
0.010976
0.009981
0.009707
0.011045
0.018477
0.036772
0.050128
0.000000
0.000000
0.000000
0.000000
0.000000
0.000000
0.000000
0.001141
0.009060
0.026972
0.051729
0.075397
0.091306
0.098736
0.101176
0.100860
0.096347
0.077222
0.035986
-0.017580
-0.060477
-0.073523
-0.066573
-0.044777
-0.023413
-0.012435
-0.011239
-0.014069
-0.018263
-0.022096
-0.025283
-0.027983
-0.030509
-0.033571
-0.036210
-0.038487
-0.040739
-0.043037
-0.043707
-0.055629
0.000000
0.000000
0.000000
0.000000
0.000000
0.000000
0.000000
0.000000
0.000000
0.000000
0.000000
0.000000
0.067407
0.090031
0.123577
0.139429
0.152594
0.158899
0.159700
0.146963
0.096891
0.016247
-0.058902
-0.081455
-0.075505
-0.058360
-0.030376
-0.008087
-0.001364
-0.005209
0.000000
0.000000
0.000000
0.000000
-0.029251
-0.023288
-0.023222
-0.020924
-0.019791
-0.019119
-0.019411
-0.012530
-0.017592
-0.019270
-0.022011
-0.025808
-0.029819
-0.034524
-0.037286
-0.041333
-0.043790
-0.045509
-0.045766
-0.045322
-0.028673
-0.021186
0.004154
0.038003
0.130534
0.149150
0.000000
0.000000
0.000000
0.001113
0.009936
0.030497
0.059232
0.086351
0.102911
0.108143
0.107641
0.105185
0.097310
0.071233
0.022511
-0.036438
-0.080233
-0.091666
-0.077645
-0.048531
-0.021765
-0.008887
-0.007611
-0.010535
-0.014800
-0.018835
-0.022096
-0.025303
-0.028424
-0.031592
-0.034214
-0.036547
-0.038631
-0.040826
-0.042366
-0.051618
0.000000
0.000000
0.000000
0.000000
0.000000
0.000000
0.000000
0.000000
0.000000
0.000000
0.000000
0.000000
0.000000
0.000000
0.000000
0.000000
0.148330
0.136800
0.183011
0.156510
0.100443
0.014396
-0.065803
-0.099152
-0.115925
-0.103224
-0.069047
-0.040959
-0.031215
-0.033956
-0.038652
-0.040232
-0.038360
-0.028719
-0.019634
-0.015330
-0.011209
-0.008901
-0.008418
-0.007817
-0.006833
-0.000491
0.000000
0.000000
0.000000
0.000000
-0.039618
-0.037620
-0.039165
-0.040470
-0.043600
-0.046480
-0.048581
-0.042622
-0.015982
-0.012516
-0.017842
-0.005103
0.011250
0.023492
0.035125
0.044948
0.108734
0.077970
0.009653
0.031862
0.064239
0.095266
0.113838
0.118184
0.115446
0.111561
0.099221
0.068223
0.014382
-0.048756
-0.094273
-0.105541
-0.089349
-0.055989
-0.024792
-0.008756
-0.006339
-0.008527
-0.011917
-0.015532
-0.019375
-0.023232
-0.026783
-0.029804
-0.032227
-0.034454
-0.036325
-0.038467
-0.040568
-0.047115
0.000000
0.000000
0.000000
0.000000
0.000000
0.000000
0.000000
0.000000
0.000000
0.000000
0.000000
0.000000
0.000000
0.000000
0.000000
0.000000
0.000000
0.000489
0.008355
0.030840
0.035014
-0.031673
-0.080475
-0.130319
-0.140159
-0.121680
-0.081837
-0.050467
-0.032924
-0.033906
-0.039029
-0.038459
-0.035886
-0.027261
-0.022169
-0.022218
-0.017998
-0.015995
-0.018850
-0.019037
-0.017011
-0.010116
-0.012949
-0.011264
-0.014724
-0.016837
-0.016634
-0.022130
-0.028006
-0.034758
-0.041753
-0.051260
-0.062690
-0.072990
0.000000
0.000000
0.000000
0.000000
0.017002
0.017284
0.022506
0.045823
0.082345
0.112744
0.120174
0.074414
-0.036850
-0.065749
0.123849
0.129119
0.125590
0.118406
0.102277
0.067861
0.010825
-0.055456
-0.104224
-0.116996
-0.101018
-0.066107
-0.031538
-0.011621
-0.006560
-0.007447
-0.009578
-0.012309
-0.016243
-0.020400
-0.024451
-0.027254
-0.029487
-0.031935
-0.034160
-0.036407
-0.038837
-0.043333
0.000000
0.000000
0.000000
0.000000
0.000000
0.000000
0.000000
0.000000
0.000000
0.000000
0.000000
0.000000
0.000000
0.000000
0.000000
0.000000
0.000000
0.000109
0.006380
0.027618
0.064219
0.104606
0.132494
0.140835
-0.098010
-0.057653
-0.093547
-0.069348
-0.060001
-0.054736
-0.050793
-0.046583
-0.036122
-0.021940
-0.020015
-0.018785
-0.017247
-0.015920
-0.019980
-0.022117
-0.021087
-0.014607
-0.016456
-0.016212
-0.019363
-0.019452
-0.017168
-0.019979
-0.024476
-0.029201
-0.035283
-0.042393
-0.045243
-0.047828
-0.046421
-0.047089
-0.041406
-0.033307
-0.025126
-0.017090
-0.007571
0.014425
0.053440
0.098480
0.131189
0.143961
0.000000
0.000000
0.000000
0.000000
-0.016327
-0.007826
0.107443
0.070604
0.011964
-0.056540
-0.109146
-0.124502
-0.112198
-0.078131
-0.041643
-0.017711
-0.008667
-0.008021
-0.009042
-0.010610
-0.013730
-0.017968
-0.021508
-0.023750
-0.026045
-0.028827
-0.031228
-0.033522
-0.035756
-0.040155
0.000000
0.000000
0.000000
0.000000
0.000000
0.000000
0.000000
0.000000
0.000000
0.000000
0.000000
0.000000
0.000000
0.000000
0.000000
0.000000
0.000000
0.000000
0.004122
0.022759
0.058981
0.103320
0.138497
0.152306
0.149077
0.137355
0.115231
0.076727
0.019024
0.031279
-0.006912
0.000273
-0.013661
-0.017156
-0.021057
-0.027418
-0.031276
-0.027193
-0.023973
-0.023249
-0.020029
-0.013061
-0.016434
-0.016380
-0.019810
-0.019397
-0.015981
-0.016349
-0.020544
-0.024686
-0.030237
-0.037067
-0.040662
-0.042855
-0.043820
-0.047006
-0.044927
-0.040627
-0.034069
-0.023751
-0.010068
0.012232
0.049469
0.103398
0.157483
0.190827
0.200966
0.192796
0.162899
0.116177
0.066600
0.006800
-0.047098
-0.062625
-0.037832
-0.015450
-0.108747
-0.129775
-0.122894
-0.092063
-0.054381
-0.026573
-0.013334
-0.009824
-0.009770
-0.010223
-0.012000
-0.015063
-0.018521
-0.021121
-0.023535
-0.026246
-0.028328
-0.030122
-0.031275
-0.037786
0.000000
0.000000
0.000000
0.000000
0.000000
0.000000
0.000000
0.000000
0.000000
0.000000
0.000000
0.000000
0.000000
0.000000
0.000000
0.000000
0.000000
0.000000
0.002072
0.016834
0.050786
0.097787
0.140545
0.162239
0.162445
0.150362
0.125783
0.086088
0.027664
-0.042557
-0.103419
-0.133938
-0.012173
-0.002354
0.015290
0.028669
0.000000
0.000000
0.000000
0.000000
-0.026517
-0.022639
-0.020337
-0.019808
-0.024694
-0.025690
-0.025103
-0.026081
-0.025985
-0.025664
-0.027494
-0.031420
-0.033527
-0.038588
-0.041528
-0.045550
-0.043864
-0.041436
-0.035714
-0.026079
-0.012897
0.007516
0.038140
0.088110
0.145400
0.188545
0.207540
0.219937
0.220717
0.196420
0.130790
0.039302
-0.055580
-0.117925
-0.120398
-0.103324
-0.079506
-0.063906
-0.057042
-0.036755
-0.070467
-0.039403
-0.021564
-0.014399
-0.011945
-0.010700
-0.011026
-0.012634
-0.015103
-0.017625
-0.020283
-0.023031
-0.025148
-0.027195
-0.028040
-0.035226
0.000000
0.000000
0.000000
0.000000
0.000000
0.000000
0.000000
0.000000
0.000000
0.000000
0.000000
0.000000
0.000000
0.000000
0.000000
0.000000
0.000000
0.000000
0.000639
0.010806
0.040272
0.087471
0.137038
0.169407
0.175192
0.165640
0.140440
0.099617
0.041814
-0.028218
-0.093406
-0.131563
-0.137884
-0.120944
-0.087986
-0.055204
-0.024096
-0.041450
-0.036476
-0.031677
-0.016966
-0.004449
-0.005161
-0.007916
-0.015397
-0.018707
-0.018227
-0.020376
0.000000
0.000000
0.000000
0.000000
-0.028271
-0.026608
-0.027832
-0.032259
-0.028458
-0.023194
-0.017763
-0.012654
-0.008419
0.004617
0.026947
0.069674
0.127803
0.181018
0.207006
0.223581
0.235942
0.229970
0.173421
0.083526
-0.017006
-0.099413
-0.126734
-0.127671
-0.124592
-0.112473
-0.090301
-0.066732
-0.049923
-0.034096
-0.032886
-0.022968
-0.015604
-0.012644
-0.011447
-0.011079
-0.012485
-0.015083
-0.017776
-0.020145
-0.022044
-0.024320
-0.024975
-0.032182
0.000000
0.000000
0.000000
0.000000
0.000000
0.000000
0.000000
0.000000
0.000000
0.000000
0.000000
0.000000
0.000000
0.000000
0.000000
0.000000
0.000000
0.000000
0.000000
0.005608
0.028728
0.072932
0.127116
0.170359
0.188306
0.182530
0.159023
0.117768
0.060001
-0.009769
-0.077912
-0.124914
-0.138420
-0.131522
-0.105886
-0.073894
-0.047364
-0.030617
-0.021347
-0.016055
-0.005956
-0.015135
-0.028927
-0.027119
-0.024862
-0.021119
-0.018796
-0.017233
-0.016215
-0.014573
-0.015604
-0.019740
-0.024375
-0.029058
-0.034779
-0.039270
-0.035702
-0.026279
-0.011609
0.002561
0.000000
0.000000
0.000000
0.000000
0.101977
0.161551
0.201632
0.218239
0.232563
0.239658
0.205882
0.125878
0.026686
-0.064620
-0.121364
-0.124856
-0.127257
-0.127065
-0.120017
-0.098930
-0.077993
-0.060118
-0.041716
-0.023411
-0.009234
-0.006120
-0.014592
-0.015304
-0.011008
-0.012544
-0.014813
-0.016992
-0.019068
-0.021375
-0.022365
-0.030113
0.000000
0.000000
0.000000
0.000000
0.000000
0.000000
0.000000
0.000000
0.000000
0.000000
0.000000
0.000000
0.000000
0.000000
0.000000
0.000000
0.000000
0.000000
0.000000
0.002000
0.017713
0.055552
0.110526
0.163783
0.194702
0.198036
0.180348
0.140822
0.083283
0.013942
-0.056225
-0.110846
-0.137511
-0.138193
-0.121618
-0.094113
-0.066231
-0.044837
-0.030862
-0.021924
-0.015907
-0.012056
-0.010458
-0.010387
-0.012805
-0.019511
-0.026700
-0.027404
-0.026401
-0.023649
-0.017969
-0.015550
-0.016692
-0.020294
-0.023275
-0.031179
-0.031830
-0.024736
-0.013863
-0.004391
0.004320
0.006534
0.011362
0.032927
0.079414
0.141373
0.191930
0.211599
0.198431
0.162537
0.123123
0.129352
0.000000
0.000000
0.000000
0.000000
-0.108267
-0.112008
-0.119068
-0.117675
-0.103959
-0.083857
-0.063820
-0.042719
-0.021445
-0.008067
-0.009228
-0.020256
-0.026560
-0.024668
-0.019063
-0.019091
-0.016047
-0.018819
-0.020984
-0.029316
0.000000
0.000000
0.000000
0.000000
0.000000
0.000000
0.000000
0.000000
0.000000
0.000000
0.000000
0.000000
0.000000
0.000000
0.000000
0.000000
0.000000
0.000000
0.000000
0.000233
0.008777
0.037568
0.088550
0.148164
0.193524
0.209149
0.200987
0.167910
0.113133
0.044894
-0.027061
-0.089054
-0.127807
-0.138406
-0.132500
-0.113548
-0.088483
-0.064636
-0.045883
-0.032387
-0.022758
-0.016059
-0.011945
-0.009948
-0.009490
-0.010562
-0.013151
-0.016404
-0.031437
-0.031985
-0.027360
-0.023457
-0.018172
-0.020277
-0.014395
-0.016162
-0.012296
-0.006862
-0.000318
0.006980
0.009388
0.009148
0.008244
0.018434
0.052700
0.110126
0.171981
0.215632
0.228871
0.236122
0.238446
0.203715
0.122908
0.029520
-0.053779
-0.110805
-0.115434
-0.111476
-0.098176
-0.073897
-0.047791
-0.029965
-0.023487
-0.025876
0.000000
0.000000
0.000000
0.000000
-0.023254
-0.027664
-0.033427
-0.029395
-0.024636
-0.022609
-0.013483
-0.012161
0.000000
0.000000
0.000000
0.000000
0.000000
0.000000
0.000000
0.000000
0.000000
0.000000
0.000000
0.000000
0.000000
0.000000
0.000000
0.000000
0.000000
0.000000
0.000000
0.000000
0.002979
0.021531
0.063795
0.123962
0.181754
0.214432
0.217747
0.196153
0.148715
0.083107
0.009880
-0.058427
-0.108952
-0.133326
-0.136516
-0.128154
-0.110659
-0.089207
-0.068351
-0.050532
-0.036463
-0.025713
-0.017805
-0.012199
-0.009547
-0.009176
-0.010948
-0.014410
-0.017614
-0.029439
0.000000
0.000000
-0.029661
-0.028833
-0.017651
-0.019864
-0.013686
-0.008368
-0.000958
0.004757
0.006670
0.006678
0.005661
0.006044
0.026096
0.075377
0.137662
0.195998
0.226166
0.231145
0.236383
0.231802
0.172871
0.088499
0.004977
-0.063668
-0.108434
-0.107608
-0.101328
-0.093452
-0.087899
-0.081144
-0.072164
-0.063181
-0.047715
-0.030326
-0.015647
-0.010649
-0.018854
-0.027867
-0.034866
-0.030872
-0.021706
-0.017642
-0.014865
-0.015947
0.000000
0.000000
0.000000
0.000000
0.000000
0.000000
0.000000
0.000000
0.000000
0.000000
0.000000
0.000000
0.000000
0.000000
0.000000
0.000000
0.000000
0.000000
0.000000
0.000000
0.000336
0.009520
0.039851
0.093820
0.157850
0.207933
0.227539
0.220243
0.185301
0.125980
0.054039
-0.017793
-0.077392
-0.116121
-0.132218
-0.132796
-0.125580
-0.111981
-0.094221
-0.075865
-0.059499
-0.045188
-0.033032
-0.023121
-0.016501
-0.013379
-0.013459
-0.015831
-0.018679
-0.032595
0.000000
0.000000
0.000000
0.000000
0.000000
0.000000
0.000000
0.000000
0.000000
0.000000
0.000000
0.000000
0.000000
0.000000
0.004264
0.038811
0.100402
0.165187
0.214650
0.232926
0.231300
0.232897
0.209926
0.143168
0.063473
-0.007921
-0.064482
-0.101130
-0.099585
-0.091200
-0.082536
-0.077252
-0.068583
-0.057282
-0.049597
-0.040956
-0.028239
-0.018075
-0.015222
-0.023580
-0.032622
-0.030990
-0.031600
-0.029279
-0.030970
-0.035387
-0.039660
-0.041885
-0.043950
-0.045980
-0.044763
-0.045812
-0.038199
-0.051019
0.000000
0.000000
0.000000
0.000000
0.000000
0.000000
0.000000
0.000000
0.000000
0.000000
0.000000
0.000000
0.000000
0.002576
0.020240
0.062228
0.124307
0.186735
0.227280
0.236089
0.216058
0.168819
0.103241
0.031773
-0.033601
-0.083561
-0.114324
-0.127771
-0.129699
-0.124538
-0.114546
-0.101576
-0.087203
-0.072426
-0.058270
-0.045333
-0.034852
-0.027523
-0.024036
-0.023959
-0.025113
-0.037526
0.000000
0.000000
0.000000
0.000000
0.000000
0.000000
0.000000
0.000000
0.000000
0.000000
-0.051585
-0.046449
-0.037191
-0.021086
0.000770
0.018866
0.000000
0.000000
0.000000
0.000000
0.226133
0.220569
0.220797
0.191488
0.124391
0.053429
-0.006301
-0.054304
-0.088209
-0.088279
-0.081960
-0.071835
-0.065808
-0.054068
-0.041866
-0.035175
-0.031792
-0.025369
-0.019345
-0.020011
-0.029714
-0.032763
-0.032975
-0.030529
-0.029585
-0.031445
-0.034117
-0.038399
-0.045179
-0.052641
-0.056279
-0.056433
-0.054186
-0.048467
-0.022422
-0.007946
-0.008498
0.000372
0.000000
0.000000
0.000000
0.000000
0.000000
0.000000
0.000000
0.000000
0.000000
0.000039
0.007262
0.034333
0.086114
0.152131
0.209741
0.239001
0.236993
0.207846
0.154543
0.087673
0.020417
-0.036681
-0.078513
-0.105085
-0.119182
-0.123615
-0.121445
-0.117068
-0.109231
-0.098324
-0.086053
-0.073285
-0.061291
-0.050679
-0.042706
-0.037886
-0.035072
-0.039531
0.000000
0.000000
0.000000
0.000000
0.000000
0.000000
0.000000
0.000000
0.000000
0.000000
0.000000
0.000000
0.000000
0.000000
-0.000543
0.007089
0.018498
0.067954
0.143575
0.200005
0.226097
0.222879
0.203426
0.169163
0.131142
0.081240
0.040230
0.030098
0.000000
0.000000
0.000000
0.000000
-0.059848
-0.055806
-0.054181
-0.045302
-0.033930
-0.028573
-0.024295
-0.018540
-0.023123
-0.025938
-0.029863
-0.035321
-0.032666
-0.031788
-0.032762
-0.035696
-0.041494
-0.049732
-0.058680
-0.065649
-0.069719
-0.059197
-0.020987
-0.002807
0.014398
0.021007
0.020691
0.021610
0.036583
0.066229
0.000000
0.000000
0.000000
0.000000
0.000000
0.000000
0.001216
0.014237
0.050110
0.109000
0.175483
0.224860
0.240582
0.234427
0.200019
0.143152
0.078931
0.019332
-0.028629
-0.063776
-0.088178
-0.104521
-0.113709
-0.116565
-0.115001
-0.110548
-0.103638
-0.094568
-0.084024
-0.072430
-0.061225
-0.051012
-0.041495
-0.033922
0.000000
0.000000
0.000000
0.000000
0.000000
0.000000
0.000000
0.000000
0.000000
0.000000
0.000000
0.000000
0.000000
0.000000
0.000000
0.000000
0.000000
0.000000
0.088842
0.154634
0.210111
0.223766
0.218283
0.207785
0.194039
0.153856
0.099065
0.049286
0.009756
-0.025079
-0.052552
-0.055410
-0.049644
-0.043233
-0.037720
-0.029259
-0.019548
-0.014728
-0.013173
-0.012122
0.000000
0.000000
0.000000
0.000000
-0.016306
-0.033770
-0.039700
-0.042571
-0.042653
-0.044481
-0.047007
-0.048235
-0.048725
-0.041516
-0.012711
0.006033
0.015593
0.017627
0.017809
0.013936
0.009235
0.009788
0.018272
0.055403
0.153032
0.166838
0.000000
0.000000
0.000000
0.003431
0.022555
0.065761
0.128646
0.192290
0.234290
0.244667
0.230714
0.191298
0.135396
0.077488
0.027275
-0.011919
-0.041379
-0.064119
-0.081628
-0.094097
-0.101544
-0.104168
-0.103071
-0.098406
-0.090015
-0.079501
-0.067845
-0.054449
-0.040520
-0.020399
0.000000
0.000000
0.000000
0.000000
0.000000
0.000000
0.000000
0.000000
0.000000
0.000000
0.000000
0.000000
0.000000
0.000000
0.000000
0.000000
0.000000
0.000000
0.000000
0.000000
0.000000
0.000000
0.193207
0.173785
0.195705
0.178688
0.143759
0.098606
0.057696
0.023083
-0.006838
-0.028235
-0.031305
-0.024274
-0.019955
-0.015199
-0.007580
-0.000502
0.002057
0.004650
0.007851
0.010806
0.005981
-0.004935
-0.011769
-0.021502
-0.029239
-0.034127
-0.036127
-0.035612
-0.033518
-0.021901
0.000000
0.000000
0.000000
0.000000
0.000000
0.000000
0.000000
0.000000
0.000000
0.000000
0.000000
0.000000
0.002892
0.011527
0.024892
0.047233
0.131096
0.119069
0.006482
0.031038
0.079283
0.143383
0.203081
0.237348
0.242731
0.225247
0.185135
0.133689
0.083728
0.042319
0.010766
-0.013492
-0.033248
-0.049876
-0.063335
-0.072714
-0.077533
-0.078457
-0.075735
-0.068996
-0.058226
-0.042911
-0.025881
0.006711
0.000000
0.000000
0.000000
0.000000
0.000000
0.000000
0.000000
0.000000
0.000000
0.000000
0.000000
0.000000
0.000000
0.000000
0.000000
0.000000
0.000000
0.000000
0.000000
0.000000
0.000000
0.000000
0.000000
0.000000
0.000563
0.009715
0.108531
0.074426
0.090963
0.057029
0.034901
0.014543
-0.000870
-0.005965
0.004967
0.008546
0.012780
0.020012
0.022880
0.024488
0.027929
0.031450
0.034591
0.022007
0.015478
0.008515
0.002941
-0.001681
-0.005640
-0.007520
-0.008243
-0.009060
-0.010563
0.008867
0.014074
0.020858
0.023013
0.019710
0.015027
0.009279
0.004047
0.001710
0.000398
0.000010
0.000000
0.000000
0.000000
0.000000
0.010732
0.032837
0.060143
0.086665
0.091152
0.062608
0.152320
0.207635
0.236730
0.238512
0.220139
0.182588
0.136914
0.094442
0.060723
0.036143
0.017525
0.001757
-0.012142
-0.023326
-0.031335
-0.035749
-0.036193
-0.032499
-0.024407
-0.011020
0.004284
0.041101
0.000000
0.000000
0.000000
0.000000
0.000000
0.000000
0.000000
0.000000
0.000000
0.000000
0.000000
0.000000
0.000000
0.000000
0.000000
0.000000
0.000000
0.000000
0.000000
0.000000
0.000000
0.000000
0.000000
0.000000
0.000000
0.001174
0.012465
0.043165
0.094351
0.154995
0.047669
0.014839
0.007217
0.004575
0.016369
0.027060
0.035082
0.038430
0.045589
0.049048
0.045379
0.048076
0.056064
0.041994
0.037651
0.033448
0.031089
0.028242
0.026616
0.025049
0.023627
0.023507
0.018925
0.030318
0.024145
0.021547
0.019859
0.014792
0.009066
0.004240
0.000604
0.000000
0.000000
0.000000
0.000000
0.000000
0.000000
0.000000
0.000000
0.000000
0.004122
0.029630
0.074825
0.118921
0.140781
0.144333
0.000000
0.000000
0.233284
0.215677
0.182161
0.142337
0.107013
0.080548
0.061390
0.047132
0.035799
0.026508
0.019008
0.014051
0.012489
0.014495
0.019747
0.029213
0.039234
0.071684
0.000000
0.000000
0.000000
0.000000
0.000000
0.000000
0.000000
0.000000
0.000000
0.000000
0.000000
0.000000
0.000000
0.000000
0.000000
0.000000
0.000000
0.000000
0.000000
0.000000
0.000000
0.000000
0.000000
0.000000
0.000000
0.000000
0.001707
0.014064
0.044965
0.094357
0.151421
0.199296
0.224856
0.227047
0.000000
0.000000
0.000000
0.000000
0.049593
0.050816
0.051838
0.050589
0.066999
0.057132
0.052789
0.051565
0.050009
0.049114
0.048768
0.048789
0.048108
0.045939
0.036918
0.053176
0.027207
0.021054
0.017013
0.010668
0.005331
0.002415
0.000777
0.000000
0.000000
0.000000
0.000000
0.000000
0.000000
0.000000
0.000000
0.000000
0.000000
0.005830
0.030775
0.070111
0.116431
0.155112
0.163947
0.148479
0.121445
0.093463
0.078500
0.062993
0.149879
0.120806
0.098120
0.082764
0.072384
0.064651
0.058487
0.054436
0.052920
0.053712
0.056380
0.061635
0.065291
0.089448
0.000000
0.000000
0.000000
0.000000
0.000000
0.000000
0.000000
0.000000
0.000000
0.000000
0.000000
0.000000
0.000000
0.000000
0.000000
0.000000
0.000000
0.000000
0.000000
0.000000
0.000000
0.000000
0.000000
0.000000
0.000000
0.000000
0.000000
0.001938
0.014143
0.043398
0.089210
0.141838
0.186749
0.211963
0.216064
0.205244
0.182731
0.155897
0.057602
0.064885
0.061777
0.060483
0.047671
0.033121
0.035014
0.040706
0.000000
0.000000
0.000000
0.000000
0.057505
0.048442
0.047646
0.062473
0.026511
0.017805
0.013449
0.007817
0.003894
0.001477
0.000364
0.000000
0.000000
0.000000
0.000000
0.000000
0.000000
0.000000
0.000000
0.000000
0.000000
0.000000
0.004197
0.024102
0.056918
0.095259
0.129760
0.145673
0.142185
0.125359
0.103861
0.084148
0.070735
0.060386
0.054636
0.042696
0.099661
0.090392
0.083945
0.079905
0.077679
0.076818
0.076885
0.078129
0.076587
0.094640
0.000000
0.000000
0.000000
0.000000
0.000000
0.000000
0.000000
0.000000
0.000000
0.000000
0.000000
0.000000
0.000000
0.000000
0.000000
0.000000
0.000000
0.000000
0.000000
0.000000
0.000000
0.000000
0.000000
0.000000
0.000000
0.000000
0.000000
0.000000
0.001772
0.012712
0.038723
0.079438
0.126836
0.168737
0.194919
0.202500
0.194580
0.178948
0.158951
0.139241
0.122649
0.110046
0.057377
0.054282
0.070697
0.069577
0.055475
0.050210
0.051663
0.056122
0.058538
0.060946
0.057352
0.068410
0.031326
0.020826
0.013567
0.006931
0.000000
0.000000
0.000000
0.000000
0.000000
0.000000
0.000000
0.000000
0.000000
0.000000
0.000000
0.000000
0.000000
0.000000
0.000000
0.002440
0.017359
0.043135
0.074127
0.103859
0.125513
0.126135
0.114997
0.099749
0.084429
0.069841
0.057610
0.049244
0.041111
0.035264
0.048436
0.045666
0.090447
0.087217
0.084634
0.082686
0.078772
0.093561
0.000000
0.000000
0.000000
0.000000
0.000000
0.000000
0.000000
0.000000
0.000000
0.000000
0.000000
0.000000
0.000000
0.000000
0.000000
0.000000
0.000000
0.000000
0.000000
0.000000
0.000000
0.000000
0.000000
0.000000
0.000000
0.000000
0.000000
0.000000
0.000000
0.001272
0.010106
0.031652
0.066092
0.107401
0.145807
0.172706
0.184668
0.183283
0.171588
0.156811
0.141207
0.126869
0.115032
0.105605
0.098252
0.092279
0.049156
0.055632
0.066356
0.062870
0.058014
0.058884
0.057408
0.068930
0.032807
0.019302
0.009255
0.004053
0.001272
0.000229
0.000001
0.000000
0.000000
0.000000
0.000000
0.000000
0.000000
0.000000
0.000000
0.000000
0.000000
0.000000
0.000000
0.000000
0.000964
0.011212
0.029787
0.053191
0.076941
0.098077
0.105669
0.101755
0.090750
0.077207
0.064931
0.054078
0.044336
0.036780
0.031950
0.034310
0.042283
0.047804
0.057116
0.045728
0.078852
0.089661
0.000000
0.000000
0.000000
0.000000
0.000000
0.000000
0.000000
0.000000
0.000000
0.000000
0.000000
0.000000
0.000000
0.000000
0.000000
0.000000
0.000000
0.000000
0.000000
0.000000
0.000000
0.000000
0.000000
0.000000
0.000000
0.000000
0.000000
0.000000
0.000000
0.000000
0.000684
0.006887
0.023326
0.050707
0.084993
0.118945
0.145709
0.160778
0.165219
0.159866
0.148834
0.136834
0.124909
0.113859
0.104234
0.095836
0.088897
0.083507
0.078047
0.081521
0.069377
0.060411
0.052311
0.059825
0.021545
0.008500
0.004721
0.001853
0.000484
0.000040
0.000000
0.000000
0.000000
0.000000
0.000000
0.000000
0.000000
0.000000
0.000000
0.000000
0.000000
0.000000
0.000000
0.000000
0.000000
0.000051
0.005969
0.018391
0.034807
0.051876
0.060146
0.062282
0.000000
0.000000
0.000000
0.000000
0.037537
0.029682
0.026529
0.025595
0.027103
0.034068
0.050695
0.051319
0.055306
0.051797
0.042831
0.037760
0.000000
0.000000
0.000000
0.000000
0.000000
0.000000
0.000000
0.000000
0.000000
0.000000
0.000000
0.000000
0.000000
0.000000
0.000000
0.000000
0.000000
0.000000
0.000000
0.000000
0.000000
0.000000
0.000000
0.000000
0.000000
0.000000
0.000000
0.000000
0.000000
0.000223
0.003812
0.015002
0.035096
0.061776
0.090017
0.114500
0.131640
0.140082
0.140718
0.135451
0.126876
0.117200
0.107347
0.097940
0.089249
0.081152
0.073717
0.067928
0.000000
0.000000
0.000000
0.000000
0.043435
0.042325
0.010242
0.003313
0.000779
0.000027
-0.000001
-0.000001
-0.000001
-0.000000
-0.000000
0.000000
0.000000
0.000000
0.000000
0.000000
0.000000
0.000000
0.000000
0.000000
0.000000
0.000000
0.000000
0.002738
0.009822
0.020042
0.032014
0.043837
0.053204
0.058290
0.059386
0.054286
0.047391
0.039364
0.030985
0.022757
0.017497
0.017748
0.025377
0.027716
0.000000
0.000000
0.000000
0.000000
0.046123
0.050929
0.044352
0.043197
0.000000
0.000000
0.000000
0.000000
0.000000
0.000000
0.000000
0.000000
0.000000
0.000000
0.000000
0.000000
0.000000
0.000000
0.000000
0.000000
0.000000
0.000000
0.000000
0.000000
0.000000
0.000000
0.000000
0.000000
0.000000
0.000000
0.000000
0.001511
0.007980
0.021132
0.040021
0.061657
0.082205
0.098549
0.108811
0.113421
0.112780
0.108155
0.101251
0.093024
0.083887
0.074196
0.063714
0.053998
0.000000
0.000000
0.000000
0.000000
0.000000
0.000000
0.000000
0.000000
0.040859
0.038931
0.010229
0.002996
0.000693
0.000041
-0.000000
-0.000000
-0.000000
-0.000000
-0.000000
0.000000
0.000000
0.000000
0.000000
0.000000
0.000000
0.000000
0.000011
0.000198
0.001451
0.004547
0.009627
0.016354
0.023496
0.029752
0.033795
0.035291
0.034464
0.031384
0.026522
0.020034
0.012872
0.007913
0.012041
0.016474
0.023842
0.031663
0.038879
0.044540
0.047075
0.047859
0.047743
0.046605
0.044437
0.041940
0.012746
0.003509
0.000000
0.000000
0.000000
0.000000
0.000000
0.000000
0.000000
0.000000
0.000000
0.000000
0.000000
0.000000
0.000000
0.000000
0.000000
0.000000
0.000000
0.000000
0.000000
0.000000
0.000000
0.000000
0.000000
0.000000
0.000278
0.003055
0.010307
0.022046
0.036727
0.051926
0.065286
0.075164
0.080901
0.082616
0.080775
0.076009
0.068899
0.060143
0.049350
0.039632
0.000000
0.000000
0.000000
0.000000
0.000000
0.000000
0.000000
0.000000
0.000000
0.000000
0.000000
0.000000
0.008070
0.002588
0.000000
0.000000
0.000000
0.000000
0.000000
0.000000
0.000000
0.000000
0.000000
0.000000
0.000000
0.000000
0.000000
0.000000
0.000000
0.000000
0.000000
0.000000
0.000000
0.000000
0.000000
0.000000
0.000000
0.000000
0.000000
0.000000
0.000000
0.000000
0.000000
0.000000
0.000000
0.000000
0.000000
0.000000
0.000000
0.000000
0.000000
0.000000
0.000000
0.000000
0.000000
0.000000
0.000000
0.000000
0.000000
0.000000
0.000000
0.000000
0.000000
0.000000
0.000000
0.000000
0.000000
0.000000
0.000000
0.000000
0.000000
0.000000
0.000000
0.000000
0.000000
0.000000
0.000000
0.000000
0.000000
0.000000
0.000000
0.000000
0.000581
0.003510
0.009401
0.017753
0.027258
0.036337
0.043670
0.048302
0.050582
0.049740
0.046117
0.040418
0.032374
0.024645
0.000000
0.000000
0.000000
0.000000
0.000000
0.000000
0.000000
0.000000
0.000000
0.000000
0.000000
0.000000
0.000000
0.000000
0.000000
0.000000
0.000000
0.000000
0.000000
0.000000
0.000000
0.000000
0.000000
0.000000
0.000000
0.000000
0.000000
0.000000
0.000000
0.000000
0.000000
0.000000
0.000000
0.000000
0.000000
0.000000
0.000000
0.000000
0.000000
0.000000
0.000000
0.000000
0.000000
0.000000
0.000000
0.000000
0.000000
0.000000
0.000000
0.000000
0.000000
0.000000
0.000000
0.000000
0.000000
0.000000
0.000000
0.000000
0.000000
0.000000
0.000000
0.000000
0.000000
0.000000
0.000000
0.000000
0.000000
0.000000
0.000000
0.000000
0.000000
0.000000
0.000000
0.000000
0.000000
0.000000
0.000000
0.000000
0.000000
0.000000
0.000000
0.000000
0.000000
0.000000
0.000485
0.002444
0.005986
0.010590
0.015404
0.019574
0.022497
0.023745
0.023079
0.020541
0.016331
0.011392
0.000000
0.000000
0.000000
0.000000
0.000000
0.000000
0.000000
0.000000
0.000000
0.000000
0.000000
0.000000
0.000000
0.000000
0.000000
0.000000
0.000000
0.000000
0.000000
0.000000
0.000000
0.000000
0.000000
0.000000
0.000000
0.000000
0.000000
0.000000
0.000000
0.000000
0.000000
0.000000
0.000000
0.000000
0.000000
0.000000
0.000000
0.000000
0.000000
0.000000
0.000000
0.000000
0.000000
0.000000
0.000000
0.000000
0.000000
0.000000
0.000000
0.000000
0.000000
0.000000
0.000000
0.000000
0.000000
0.000000
0.000000
0.000000
0.000000
0.000000
0.000000
0.000000
0.000000
0.000000
0.000000
0.000000
0.000000
0.000000
0.000000
0.000000
0.000000
0.000000
0.000000
0.000000
0.000000
0.000000
0.000000
0.000000
0.000000
0.000000
0.000000
0.000000
0.000000
0.000000
0.000000
0.000000
0.000110
0.000851
0.002260
0.003965
0.005568
0.006725
0.007149
0.006626
0.005297
0.003324
0.000000
0.000000
0.000000
0.000000
0.000000
0.000000
0.000000
0.000000
0.000000
0.000000
0.000000
0.000000
0.000000
0.000000
0.000000
0.000000
0.000000
0.000000
0.000000
0.000000
0.000000
0.000000
0.000000
0.000000
0.000000
0.000000
0.000000
0.000000
0.000000
0.000000
0.000000
0.000000
0.000000
0.000000
0.000000
0.000000
0.000000
0.000000
0.000000
0.000000
0.000000
0.000000
0.000000
0.000000
0.000000
0.000000
0.000000
0.000000
0.000000
0.000000
0.000000
0.000000
0.000000
0.000000
0.000000
0.000000
0.000000
0.000000
0.000000
0.000000
0.000000
0.000000
0.000000
0.000000
0.000000
0.000000
0.000000
0.000000
0.000000
0.000000
0.000000
0.000000
0.000000
0.000000
0.000000
0.000000
0.000000
0.000000
0.000000
0.000000
0.000000
0.000000
0.000000
0.000000
0.000000
0.000000
0.000000
0.000000
0.000000
0.000028
0.000194
0.000463
0.000680
0.000737
0.000607
0.000309
0.000000
0.000000
0.000000
0.000000
0.000000
0.000000
0.000000
0.000000
0.000000
0.000000
0.000000
0.000000
0.000000
0.000000
0.000000
0.000000
0.000000
0.000000
0.000000
0.000000
0.000000
0.000000
0.000000
0.000000
0.000000
0.000000
0.000000
0.000000
0.000000
0.000000
0.000000
0.000000
0.000000
0.000000
0.000000
0.000000
0.000000
0.000000
0.000000
0.000000
0.000000
0.000000
0.000000
0.000000
0.000000
0.000000
0.000000
0.000000
0.000000
0.000000
0.000000
0.000000
0.000000
0.000000
0.000000
0.000000
0.000000
0.000000
0.000000
0.000000
0.000000
0.000000
0.000000
0.000000
0.000000
0.000000
0.000000
0.000000
0.000000
0.000000
0.000000
0.000000
0.000000
0.000000
0.000000
0.000000
0.000000
0.000000
0.000000
0.000000
0.000000
0.000000
0.000000
0.000000
0.000000
0.000000
0.000000
0.000000
0.000000
0.000000
0.000000
0.000000
0.000000
0.000000
0.000000
0.000000
0.000000
0.000000
0.000000
0.000000
0.000000
0.000000
0.000000
0.000000
0.000000
0.000000
0.000000
0.000000
0.000000
0.000000
0.000000
0.000000
0.000000
0.000000
0.000000
0.000000
0.000000
0.000000
0.000000
0.000000
0.000000
0.000000
0.000000
0.000000
0.000000
0.000000
0.000000
0.000000
0.000000
0.000000
0.000000
0.000000
0.000000
0.000000
0.000000
0.000000
0.000000
0.000000
0.000000
0.000000
0.000000
0.000000
0.000000
0.000000
0.000000
0.000000
0.000000
0.000000
0.000000
0.000000
0.000000
0.000000
0.000000
0.000000
0.000000
0.000000
0.000000
0.000000
0.000000
0.000000
0.000000
0.000000
0.000000
0.000000
0.000000
0.000000
0.000000
0.000000
0.000000
0.000000
0.000000
0.000000
0.000000
0.000000
0.000000
0.000000
0.000000
0.000000
0.000000
0.000000
0.000000
0.000000
0.000000
0.000000
0.000000
0.000000
0.000000
0.000000
0.000000
0.000000
0.000000
0.000000
0.000000
0.000000
0.000000
0.000000
0.000000
0.000000
0.000000
0.000000
0.000000
0.000000
0.000000
0.000000
0.000000
0.000000
0.000000
0.000000
0.000000
0.000000
0.000000
0.000000
0.000000
0.000000
0.000000
0.000000
0.000000
0.000000
0.000000
0.000000
0.000000
0.000000
0.000000
0.000000
0.000000
0.000000
0.000000
0.000000
0.000000
0.000000
0.000000
0.000000
0.000000
0.000000
0.000000
0.000000
0.000000
0.000000
0.000000