# vtk DataFile Version 3.0
Created by write_to_vtk2d
ASCII
DATASET STRUCTURED_POINTS
DIMENSIONS 100 100 1
SPACING 1.000000 1.000000 0.0
ORIGIN 0.000000 0.000000 0.0
POINT_DATA 10000
SCALARS p float 1
LOOKUP_TABLE p_table
0.000000
0.000000
0.000000
0.000000
0.000000
0.000000
0.000000
0.000000
0.000000
0.000000
0.000000
0.000000
0.000000
0.000000
0.000000
0.000000
0.000000
0.000000
0.000000
0.000000
0.000000
0.000000
0.000000
0.000000
0.000000
0.000000
0.000000
0.000000
0.000000
0.000000
0.000122
0.000985
0.002907
0.006088
0.010573
0.016302
0.023096
0.030713
0.038874
0.047284
0.055670
0.063781
0.071411
0.078388
0.084600
0.089950
0.094377
0.097849
0.100352
0.101911
0.102412
0.101911
0.100352
0.097849
0.094377
0.089950
0.084600
0.078388
0.071411
0.063781
0.055670
0.047284
0.038874
0.030713
0.023096
0.016302
0.010573
0.006088
0.002907
0.000985
0.000122
0.000000
0.000000
0.000000
0.000000
0.000000
0.000000
0.000000
0.000000
0.000000
0.000000
0.000000
0.000000
0.000000
0.000000
0.000000
0.000000
0.000000
0.000000
0.000000
0.000000
0.000000
0.000000
0.000000
0.000000
0.000000
0.000000
0.000000
0.000000
0.000000
0.000000
0.000000
0.000000
0.000000
0.000000
0.000000
0.000000
0.000000
0.000000
0.000000
0.000000
0.000000
0.000000
0.000000
0.000000
0.000000
0.000000
0.000000
0.000000
0.000000
0.000000
0.000000
0.000000
0.000000
0.000000
0.000000
0.000000
0.000000
0.000272
0.001589
0.004412
0.009034
0.015481
0.023602
0.033101
0.043593
0.054642
0.065825
0.076776
0.087195
0.096854
0.105579
0.113342
0.120052
0.125745
0.130455
0.134233
0.137089
0.139161
0.140357
0.140743
0.140357
0.139161
0.137089
0.134233
0.130455
0.125745
0.120052
0.113342
0.105579
0.096854
0.087195
0.076776
0.065825
0.054642
0.043593
0.033101
0.023602
0.015481
0.009034
0.004412
0.001589
0.000272
0.000000
0.000000
0.000000
0.000000
0.000000
0.000000
0.000000
0.000000
0.000000
0.000000
0.000000
0.000000
0.000000
0.000000
0.000000
0.000000
0.000000
0.000000
0.000000
0.000000
0.000000
0.000000
0.000000
0.000000
0.000000
0.000000
0.000000
0.000000
0.000000
0.000000
0.000000
0.000000
0.000000
0.000000
0.000000
0.000000
0.000000
0.000000
0.000000
0.000000
0.000000
0.000000
0.000000
0.000000
0.000000
0.000000
0.000000
0.000000
0.000000
0.000000
0.000000
0.000000
0.000000
0.000280
0.001822
0.005296
0.011117
0.019344
0.029776
0.041990
0.055418
0.069454
0.083516
0.097102
0.109816
0.121390
0.131678
0.140606
0.148216
0.154594
0.159851
0.164078
0.167422
0.170022
0.171939
0.173250
0.173993
0.174241
0.173993
0.173250
0.171939
0.170022
0.167422
0.164078
0.159851
0.154594
0.148216
0.140606
0.131678
0.121390
0.109816
0.097102
0.083516
0.069454
0.055418
0.041990
0.029776
0.019344
0.011117
0.005296
0.001822
0.000280
0.000000
0.000000
0.000000
0.000000
0.000000
0.000000
0.000000
0.000000
0.000000
0.000000
0.000000
0.000000
0.000000
0.000000
0.000000
0.000000
0.000000
0.000000
0.000000
0.000000
0.000000
0.000000
0.000000
0.000000
0.000000
0.000000
0.000000
0.000000
0.000000
0.000000
0.000000
0.000000
0.000000
0.000000
0.000000
0.000000
0.000000
0.000000
0.000000
0.000000
0.000000
0.000000
0.000000
0.000000
0.000000
0.000000
0.000000
0.000000
0.000000
0.000137
0.001571
0.005229
0.011765
0.021335
0.033709
0.048328
0.064434
0.081187
0.097783
0.113553
0.127983
0.140759
0.151737
0.160901
0.168362
0.174307
0.178977
0.182512
0.185159
0.187176
0.188697
0.189744
0.190458
0.190907
0.191136
0.191202
0.191136
0.190907
0.190458
0.189744
0.188697
0.187176
0.185159
0.182512
0.178977
0.174307
0.168362
0.160901
0.151737
0.140759
0.127983
0.113553
0.097783
0.081187
0.064434
0.048328
0.033709
0.021335
0.011765
0.005229
0.001571
0.000137
0.000000
0.000000
0.000000
0.000000
0.000000
0.000000
0.000000
0.000000
0.000000
0.000000
0.000000
0.000000
0.000000
0.000000
0.000000
0.000000
0.000000
0.000000
0.000000
0.000000
0.000000
0.000000
0.000000
0.000000
0.000000
0.000000
0.000000
0.000000
0.000000
0.000000
0.000000
0.000000
0.000000
0.000000
0.000000
0.000000
0.000000
0.000000
0.000000
0.000000
0.000000
0.000000
0.000000
0.000000
0.000000
0.000000
0.000941
0.004192
0.010744
0.020971
0.034707
0.051278
0.069709
0.088895
0.107762
0.125406
0.141171
0.154654
0.165726
0.174453
0.181096
0.185847
0.189234
0.191313
0.192595
0.193594
0.194009
0.193851
0.193619
0.193559
0.193701
0.193768
0.193763
0.193745
0.193763
0.193768
0.193701
0.193559
0.193619
0.193851
0.194009
0.193594
0.192595
0.191313
0.189234
0.185847
0.181096
0.174453
0.165726
0.154654
0.141171
0.125406
0.107762
0.088895
0.069709
0.051278
0.034707
0.020971
0.010744
0.004192
0.000941
0.000000
0.000000
0.000000
0.000000
0.000000
0.000000
0.000000
0.000000
0.000000
0.000000
0.000000
0.000000
0.000000
0.000000
0.000000
0.000000
0.000000
0.000000
0.000000
0.000000
0.000000
0.000000
0.000000
0.000000
0.000000
0.000000
0.000000
0.000000
0.000000
0.000000
0.000000
0.000000
0.000000
0.000000
0.000000
0.000000
0.000000
0.000000
0.000000
0.000000
0.000000
0.000000
0.000000
0.000318
0.002592
0.008292
0.018226
0.032479
0.050379
0.070734
0.092118
0.113125
0.132549
0.149537
0.163603
0.174578
0.182579
0.188115
0.191476
0.193407
0.193995
0.193522
0.193635
0.193160
0.192592
0.192042
0.191387
0.190811
0.190356
0.189956
0.189662
0.189521
0.189485
0.189521
0.189662
0.189956
0.190356
0.190811
0.191387
0.192042
0.192592
0.193160
0.193635
0.193522
0.193995
0.193407
0.191476
0.188115
0.182579
0.174578
0.163603
0.149537
0.132549
0.113125
0.092118
0.070734
0.050379
0.032479
0.018226
0.008292
0.002592
0.000318
0.000000
0.000000
0.000000
0.000000
0.000000
0.000000
0.000000
0.000000
0.000000
0.000000
0.000000
0.000000
0.000000
0.000000
0.000000
0.000000
0.000000
0.000000
0.000000
0.000000
0.000000
0.000000
0.000000
0.000000
0.000000
0.000000
0.000000
0.000000
0.000000
0.000000
0.000000
0.000000
0.000000
0.000000
0.000000
0.000000
0.000000
0.000000
0.000000
0.000000
0.001034
0.005091
0.013657
0.027294
0.045579
0.067251
0.090579
0.113735
0.135117
0.153550
0.168393
0.179487
0.186939
0.191417
0.193719
0.193644
0.193821
0.192996
0.191763
0.190144
0.188544
0.186933
0.185291
0.183964
0.182693
0.181615
0.180763
0.180048
0.179546
0.179286
0.179209
0.179286
0.179546
0.180048
0.180763
0.181615
0.182693
0.183964
0.185291
0.186933
0.188544
0.190144
0.191763
0.192996
0.193821
0.193644
0.193719
0.191417
0.186939
0.179487
0.168393
0.153550
0.135117
0.113735
0.090579
0.067251
0.045579
0.027294
0.013657
0.005091
0.001034
0.000000
0.000000
0.000000
0.000000
0.000000
0.000000
0.000000
0.000000
0.000000
0.000000
0.000000
0.000000
0.000000
0.000000
0.000000
0.000000
0.000000
0.000000
0.000000
0.000000
0.000000
0.000000
0.000000
0.000000
0.000000
0.000000
0.000000
0.000000
0.000000
0.000000
0.000000
0.000000
0.000000
0.000000
0.000000
0.000000
0.000000
0.000130
0.002180
0.008307
0.019943
0.037311
0.059383
0.084206
0.109482
0.133107
0.153477
0.169659
0.181393
0.188913
0.192667
0.193747
0.193894
0.192884
0.190986
0.188646
0.185854
0.183131
0.180333
0.177840
0.175485
0.173417
0.171492
0.169819
0.168366
0.167096
0.166040
0.165281
0.164840
0.164689
0.164840
0.165281
0.166040
0.167096
0.168366
0.169819
0.171492
0.173417
0.175485
0.177840
0.180333
0.183131
0.185854
0.188646
0.190986
0.192884
0.193894
0.193747
0.192667
0.188913
0.181393
0.169659
0.153477
0.133107
0.109482
0.084206
0.059383
0.037311
0.019943
0.008307
0.002180
0.000130
0.000000
0.000000
0.000000
0.000000
0.000000
0.000000
0.000000
0.000000
0.000000
0.000000
0.000000
0.000000
0.000000
0.000000
0.000000
0.000000
0.000000
0.000000
0.000000
0.000000
0.000000
0.000000
0.000000
0.000000
0.000000
0.000000
0.000000
0.000000
0.000000
0.000000
0.000000
0.000000
0.000000
0.000000
0.000419
0.003611
0.011951
0.026698
0.047627
0.073007
0.100201
0.126417
0.149375
0.167669
0.180789
0.188996
0.193102
0.193477
0.193370
0.191688
0.189102
0.185609
0.181796
0.178015
0.174316
0.170886
0.167784
0.164936
0.162350
0.159959
0.157635
0.155487
0.153538
0.151795
0.150354
0.149303
0.148654
0.148426
0.148654
0.149303
0.150354
0.151795
0.153538
0.155487
0.157635
0.159959
0.162350
0.164936
0.167784
0.170886
0.174316
0.178015
0.181796
0.185609
0.189102
0.191688
0.193370
0.193477
0.193102
0.188996
0.180789
0.167669
0.149375
0.126417
0.100201
0.073007
0.047627
0.026698
0.011951
0.003611
0.000419
0.000000
0.000000
0.000000
0.000000
0.000000
0.000000
0.000000
0.000000
0.000000
0.000000
0.000000
0.000000
0.000000
0.000000
0.000000
0.000000
0.000000
0.000000
0.000000
0.000000
0.000000
0.000000
0.000000
0.000000
0.000000
0.000000
0.000000
0.000000
0.000000
0.000000
0.000000
0.000000
0.000785
0.005189
0.015698
0.033413
0.057576
0.085725
0.114509
0.140720
0.162105
0.177636
0.187367
0.192396
0.193332
0.193155
0.190891
0.187663
0.183587
0.179111
0.174423
0.169931
0.165819
0.162131
0.158764
0.155683
0.152672
0.149771
0.146897
0.144052
0.141313
0.138803
0.136624
0.134858
0.133562
0.132746
0.132463
0.132746
0.133562
0.134858
0.136624
0.138803
0.141313
0.144052
0.146897
0.149771
0.152672
0.155683
0.158764
0.162131
0.165819
0.169931
0.174423
0.179111
0.183587
0.187663
0.190891
0.193155
0.193332
0.192396
0.187367
0.177636
0.162105
0.140720
0.114509
0.085725
0.057576
0.033413
0.015698
0.005189
0.000785
0.000000
0.000000
0.000000
0.000000
0.000000
0.000000
0.000000
0.000000
0.000000
0.000000
0.000000
0.000000
0.000000
0.000000
0.000000
0.000000
0.000000
0.000000
0.000000
0.000000
0.000000
0.000000
0.000000
0.000000
0.000000
0.000000
0.000000
0.000000
0.000000
0.000000
0.001168
0.006702
0.019193
0.039596
0.066599
0.096969
0.126680
0.152228
0.171494
0.183963
0.190542
0.192227
0.192788
0.190815
0.187380
0.182828
0.177772
0.172597
0.167632
0.163019
0.158834
0.155060
0.151624
0.148309
0.144977
0.141529
0.137989
0.134450
0.131023
0.127836
0.125013
0.122660
0.120815
0.119493
0.118684
0.118415
0.118684
0.119493
0.120815
0.122660
0.125013
0.127836
0.131023
0.134450
0.137989
0.141529
0.144977
0.148309
0.151624
0.155060
0.158834
0.163019
0.167632
0.172597
0.177772
0.182828
0.187380
0.190815
0.192788
0.192227
0.190542
0.183963
0.171494
0.152228
0.126680
0.096969
0.066599
0.039596
0.019193
0.006702
0.001168
0.000000
0.000000
0.000000
0.000000
0.000000
0.000000
0.000000
0.000000
0.000000
0.000000
0.000000
0.000000
0.000000
0.000000
0.000000
0.000000
0.000000
0.000000
0.000000
0.000000
0.000000
0.000000
0.000000
0.000000
0.000000
0.000000
0.000000
0.000000
0.001488
0.007932
0.022123
0.044840
0.074245
0.106366
0.136538
0.161006
0.177967
0.187623
0.191774
0.192251
0.190988
0.187939
0.183501
0.178271
0.172735
0.167263
0.162146
0.157563
0.153465
0.149701
0.146087
0.142442
0.138593
0.134517
0.130283
0.126024
0.121969
0.118300
0.115136
0.112514
0.110445
0.108903
0.107851
0.107244
0.107051
0.107244
0.107851
0.108903
0.110445
0.112514
0.115136
0.118300
0.121969
0.126024
0.130283
0.134517
0.138593
0.142442
0.146087
0.149701
0.153465
0.157563
0.162146
0.167263
0.172735
0.178271
0.183501
0.187939
0.190988
0.192251
0.191774
0.187623
0.177967
0.161006
0.136538
0.106366
0.074245
0.044840
0.022123
0.007932
0.001488
0.000000
0.000000
0.000000
0.000000
0.000000
0.000000
0.000000
0.000000
0.000000
0.000000
0.000000
0.000000
0.000000
0.000000
0.000000
0.000000
0.000000
0.000000
0.000000
0.000000
0.000000
0.000000
0.000000
0.000000
0.000000
0.000000
0.001667
0.008740
0.024223
0.048812
0.080198
0.113726
0.144103
0.167400
0.182104
0.189227
0.191014
0.191272
0.189110
0.185234
0.180029
0.174410
0.168723
0.163270
0.158134
0.153439
0.149193
0.145212
0.141245
0.137059
0.132506
0.127596
0.122532
0.117594
0.113024
0.109008
0.105690
0.103075
0.101080
0.099598
0.098563
0.097900
0.097546
0.097439
0.097546
0.097900
0.098563
0.099598
0.101080
0.103075
0.105690
0.109008
0.113024
0.117594
0.122532
0.127596
0.132506
0.137059
0.141245
0.145212
0.149193
0.153439
0.158134
0.163270
0.168723
0.174410
0.180029
0.185234
0.189110
0.191272
0.191014
0.189227
0.182104
0.167400
0.144103
0.113726
0.080198
0.048812
0.024223
0.008740
0.001667
0.000000
0.000000
0.000000
0.000000
0.000000
0.000000
0.000000
0.000000
0.000000
0.000000
0.000000
0.000000
0.000000
0.000000
0.000000
0.000000
0.000000
0.000000
0.000000
0.000000
0.000000
0.000000
0.000000
0.000000
0.001667
0.009020
0.025312
0.051275
0.084255
0.118969
0.149540
0.171806
0.184628
0.189884
0.190771
0.189739
0.187120
0.182989
0.177509
0.171533
0.165675
0.160146
0.154960
0.150074
0.145436
0.140899
0.136225
0.131194
0.125706
0.119849
0.113873
0.108160
0.103070
0.098809
0.095354
0.092687
0.090682
0.089181
0.088054
0.087252
0.086711
0.086402
0.086301
0.086402
0.086711
0.087252
0.088054
0.089181
0.090682
0.092687
0.095354
0.098809
0.103070
0.108160
0.113873
0.119849
0.125706
0.131194
0.136225
0.140899
0.145436
0.150074
0.154960
0.160146
0.165675
0.171533
0.177509
0.182989
0.187120
0.189739
0.190771
0.189884
0.184628
0.171806
0.149540
0.118969
0.084255
0.051275
0.025312
0.009020
0.001667
0.000000
0.000000
0.000000
0.000000
0.000000
0.000000
0.000000
0.000000
0.000000
0.000000
0.000000
0.000000
0.000000
0.000000
0.000000
0.000000
0.000000
0.000000
0.000000
0.000000
0.000000
0.000000
0.001491
0.008735
0.025301
0.052095
0.086295
0.122093
0.153020
0.174620
0.186061
0.189703
0.190134
0.188652
0.185568
0.181025
0.175706
0.169611
0.163467
0.157580
0.152025
0.146665
0.141414
0.136133
0.130569
0.124507
0.117887
0.110915
0.103967
0.097470
0.091752
0.086998
0.083191
0.080093
0.077519
0.075326
0.073416
0.071758
0.070403
0.069373
0.068723
0.068500
0.068723
0.069373
0.070403
0.071758
0.073416
0.075326
0.077519
0.080093
0.083191
0.086998
0.091752
0.097470
0.103967
0.110915
0.117887
0.124507
0.130569
0.136133
0.141414
0.146665
0.152025
0.157580
0.163467
0.169611
0.175706
0.181025
0.185568
0.188652
0.190134
0.189703
0.186061
0.174620
0.153020
0.122093
0.086295
0.052095
0.025301
0.008735
0.001491
0.000000
0.000000
0.000000
0.000000
0.000000
0.000000
0.000000
0.000000
0.000000
0.000000
0.000000
0.000000
0.000000
0.000000
0.000000
0.000000
0.000000
0.000000
0.000000
0.000000
0.001174
0.007921
0.024189
0.051229
0.086266
0.123114
0.154705
0.176178
0.186762
0.189356
0.189512
0.187688
0.184498
0.179976
0.174370
0.168152
0.161647
0.155280
0.149054
0.142984
0.136901
0.130659
0.124095
0.116989
0.109292
0.101184
0.093146
0.085716
0.079222
0.073683
0.068921
0.064655
0.060611
0.056652
0.052785
0.049112
0.045777
0.042962
0.040803
0.039464
0.038998
0.039464
0.040803
0.042962
0.045777
0.049112
0.052785
0.056652
0.060611
0.064655
0.068921
0.073683
0.079222
0.085716
0.093146
0.101184
0.109292
0.116989
0.124095
0.130659
0.136901
0.142984
0.149054
0.155280
0.161647
0.168152
0.174370
0.179976
0.184498
0.187688
0.189512
0.189356
0.186762
0.176178
0.154705
0.123114
0.086266
0.051229
0.024189
0.007921
0.001174
0.000000
0.000000
0.000000
0.000000
0.000000
0.000000
0.000000
0.000000
0.000000
0.000000
0.000000
0.000000
0.000000
0.000000
0.000000
0.000000
0.000000
0.000000
0.000796
0.006678
0.022072
0.048726
0.084169
0.122039
0.154689
0.176676
0.187053
0.189298
0.188967
0.186927
0.183697
0.179318
0.173727
0.167167
0.160031
0.152868
0.145892
0.138997
0.132069
0.124879
0.117239
0.109043
0.100289
0.091186
0.082115
0.073570
0.065892
0.059045
0.052673
0.046342
0.039770
0.032895
0.025872
0.018994
0.012580
0.006913
0.002241
-0.001249
-0.003351
-0.004089
-0.003351
-0.001249
0.002241
0.006913
0.012580
0.018994
0.025872
0.032895
0.039770
0.046342
0.052673
0.059045
0.065892
0.073570
0.082115
0.091186
0.100289
0.109043
0.117239
0.124879
0.132069
0.138997
0.145892
0.152868
0.160031
0.167167
0.173727
0.179318
0.183697
0.186927
0.188967
0.189298
0.187053
0.176676
0.154689
0.122039
0.084169
0.048726
0.022072
0.006678
0.000796
0.000000
0.000000
0.000000
0.000000
0.000000
0.000000
0.000000
0.000000
0.000000
0.000000
0.000000
0.000000
0.000000
0.000000
0.000000
0.000000
0.000418
0.005178
0.019132
0.044727
0.080061
0.118859
0.152967
0.176180
0.187065
0.189258
0.188710
0.186529
0.183229
0.178892
0.173286
0.166394
0.158669
0.150561
0.142629
0.134846
0.127121
0.119164
0.110663
0.101455
0.091602
0.081402
0.071251
0.061489
0.052268
0.043447
0.034627
0.025352
0.015359
0.004740
-0.006146
-0.016818
-0.026784
-0.035644
-0.043137
-0.049097
-0.053414
-0.056033
-0.056927
-0.056033
-0.053414
-0.049097
-0.043137
-0.035644
-0.026784
-0.016818
-0.006146
0.004740
0.015359
0.025352
0.034627
0.043447
0.052268
0.061489
0.071251
0.081402
0.091602
0.101455
0.110663
0.119164
0.127121
0.134846
0.142629
0.150561
0.158669
0.166394
0.173286
0.178892
0.183229
0.186529
0.188710
0.189258
0.187065
0.176180
0.152967
0.118859
0.080061
0.044727
0.019132
0.005178
0.000418
0.000000
0.000000
0.000000
0.000000
0.000000
0.000000
0.000000
0.000000
0.000000
0.000000
0.000000
0.000000
0.000000
0.000000
0.000154
0.003611
0.015630
0.039465
0.074060
0.113557
0.149445
0.174615
0.186790
0.189332
0.188727
0.186417
0.183054
0.178713
0.173015
0.165808
0.157369
0.148480
0.139578
0.131018
0.122480
0.113836
0.104664
0.094694
0.083882
0.072480
0.060947
0.049593
0.038430
0.027116
0.015169
0.002230
-0.011735
-0.026389
-0.041098
-0.055168
-0.068027
-0.079284
-0.088755
-0.096365
-0.102134
-0.106177
-0.108583
-0.109443
-0.108583
-0.106177
-0.102134
-0.096365
-0.088755
-0.079284
-0.068027
-0.055168
-0.041098
-0.026389
-0.011735
0.002230
0.015169
0.027116
0.038430
0.049593
0.060947
0.072480
0.083882
0.094694
0.104664
0.113836
0.122480
0.131018
0.139578
0.148480
0.157369
0.165808
0.173015
0.178713
0.183054
0.186417
0.188727
0.189332
0.186790
0.174615
0.149445
0.113557
0.074060
0.039465
0.015630
0.003611
0.000154
0.000000
0.000000
0.000000
0.000000
0.000000
0.000000
0.000000
0.000000
0.000000
0.000000
0.000000
0.000000
0.000014
0.002163
0.011894
0.033265
0.066378
0.106142
0.143963
0.171775
0.186093
0.189512
0.189043
0.186608
0.183068
0.178692
0.172919
0.165410
0.156439
0.146682
0.137010
0.127666
0.118638
0.109345
0.099562
0.088874
0.077192
0.064647
0.051536
0.038165
0.024489
0.010160
-0.005312
-0.022141
-0.040056
-0.058327
-0.076025
-0.092248
-0.106357
-0.118156
-0.127665
-0.135023
-0.140619
-0.144656
-0.147305
-0.148803
-0.149280
-0.148803
-0.147305
-0.144656
-0.140619
-0.135023
-0.127665
-0.118156
-0.106357
-0.092248
-0.076025
-0.058327
-0.040056
-0.022141
-0.005312
0.010160
0.024489
0.038165
0.051536
0.064647
0.077192
0.088874
0.099562
0.109345
0.118638
0.127666
0.137010
0.146682
0.156439
0.165410
0.172919
0.178692
0.183068
0.186608
0.189043
0.189512
0.186093
0.171775
0.143963
0.106142
0.066378
0.033265
0.011894
0.002163
0.000014
0.000000
0.000000
0.000000
0.000000
0.000000
0.000000
0.000000
0.000000
0.000000
0.000000
0.000000
0.001045
0.008267
0.026554
0.057338
0.096693
0.136335
0.167337
0.184696
0.189761
0.189613
0.187117
0.183318
0.178759
0.172945
0.165296
0.155900
0.145551
0.135093
0.125139
0.115553
0.105932
0.095576
0.084205
0.071561
0.057744
0.042960
0.027328
0.010796
-0.006948
-0.026144
-0.046697
-0.067920
-0.088701
-0.107820
-0.124298
-0.137547
-0.147746
-0.154981
-0.160082
-0.163583
-0.165659
-0.166779
-0.167575
-0.168036
-0.168143
-0.168036
-0.167575
-0.166779
-0.165659
-0.163583
-0.160082
-0.154981
-0.147746
-0.137547
-0.124298
-0.107820
-0.088701
-0.067920
-0.046697
-0.026144
-0.006948
0.010796
0.027328
0.042960
0.057744
0.071561
0.084205
0.095576
0.105932
0.115553
0.125139
0.135093
0.145551
0.155900
0.165296
0.172945
0.178759
0.183318
0.187117
0.189613
0.189761
0.184696
0.167337
0.136335
0.096693
0.057338
0.026554
0.008267
0.001045
0.000000
0.000000
0.000000
0.000000
0.000000
0.000000
0.000000
0.000000
0.000000
0.000000
0.000317
0.005059
0.019825
0.047384
0.085416
0.126414
0.160897
0.182225
0.189863
0.190228
0.187900
0.183843
0.178965
0.173053
0.165434
0.155907
0.145122
0.134116
0.123534
0.113490
0.103442
0.092715
0.080674
0.067080
0.051882
0.035198
0.017148
-0.002384
-0.023553
-0.046325
-0.070085
-0.093630
-0.115436
-0.134144
-0.148793
-0.159052
-0.165813
-0.169185
-0.171252
-0.170866
-0.170404
-0.170347
-0.169622
-0.169044
-0.168746
-0.168629
-0.168746
-0.169044
-0.169622
-0.170347
-0.170404
-0.170866
-0.171252
-0.169185
-0.165813
-0.159052
-0.148793
-0.134144
-0.115436
-0.093630
-0.070085
-0.046325
-0.023553
-0.002384
0.017148
0.035198
0.051882
0.067080
0.080674
0.092715
0.103442
0.113490
0.123534
0.134116
0.145122
0.155907
0.165434
0.173053
0.178965
0.183843
0.187900
0.190228
0.189863
0.182225
0.160897
0.126414
0.085416
0.047384
0.019825
0.005059
0.000317
0.000000
0.000000
0.000000
0.000000
0.000000
0.000000
0.000000
0.000000
0.000035
0.002578
0.013547
0.037084
0.072683
0.114188
0.152045
0.177967
0.189416
0.190974
0.188749
0.184588
0.179347
0.173281
0.165787
0.156407
0.145503
0.134071
0.122983
0.112423
0.101979
0.090830
0.078220
0.063711
0.047144
0.028570
0.007969
-0.014585
-0.039042
-0.064932
-0.091124
-0.115870
-0.137243
-0.153842
-0.164924
-0.170841
-0.173599
-0.172566
-0.171841
-0.169647
-0.167064
-0.164213
-0.161690
-0.159449
-0.157708
-0.156710
-0.156361
-0.156710
-0.157708
-0.159449
-0.161690
-0.164213
-0.167064
-0.169647
-0.171841
-0.172566
-0.173599
-0.170841
-0.164924
-0.153842
-0.137243
-0.115870
-0.091124
-0.064932
-0.039042
-0.014585
0.007969
0.028570
0.047144
0.063711
0.078220
0.090830
0.101979
0.112423
0.122983
0.134071
0.145503
0.156407
0.165787
0.173281
0.179347
0.184588
0.188749
0.190974
0.189416
0.177967
0.152045
0.114188
0.072683
0.037084
0.013547
0.002578
0.000035
0.000000
0.000000
0.000000
0.000000
0.000000
0.000000
0.000000
0.000947
0.008231
0.027097
0.059052
0.099834
0.140468
0.171453
0.187759
0.191385
0.190203
0.185816
0.180010
0.173664
0.166337
0.157329
0.146628
0.135013
0.123452
0.112378
0.101457
0.089899
0.076791
0.061456
0.043651
0.023248
0.000312
-0.025160
-0.052651
-0.081176
-0.108969
-0.133701
-0.153388
-0.166744
-0.173676
-0.174388
-0.174195
-0.171064
-0.166303
-0.160949
-0.155155
-0.149743
-0.144831
-0.140855
-0.137499
-0.135173
-0.133800
-0.133324
-0.133800
-0.135173
-0.137499
-0.140855
-0.144831
-0.149743
-0.155155
-0.160949
-0.166303
-0.171064
-0.174195
-0.174388
-0.173676
-0.166744
-0.153388
-0.133701
-0.108969
-0.081176
-0.052651
-0.025160
0.000312
0.023248
0.043651
0.061456
0.076791
0.089899
0.101457
0.112378
0.123452
0.135013
0.146628
0.157329
0.166337
0.173664
0.180010
0.185816
0.190203
0.191385
0.187759
0.171453
0.140468
0.099834
0.059052
0.027097
0.008231
0.000947
0.000000
0.000000
0.000000
0.000000
0.000000
0.000000
0.000157
0.004163
0.018091
0.045292
0.083818
0.126079
0.161979
0.184154
0.191651
0.191348
0.187397
0.181313
0.174414
0.167037
0.158521
0.148340
0.136857
0.124971
0.113341
0.101882
0.089858
0.076308
0.060377
0.041514
0.019576
-0.005533
-0.033518
-0.063724
-0.094429
-0.123202
-0.147314
-0.164358
-0.173797
-0.175681
-0.175341
-0.170650
-0.163780
-0.155305
-0.146574
-0.138196
-0.130849
-0.124335
-0.119031
-0.114847
-0.111584
-0.109330
-0.107959
-0.107482
-0.107959
-0.109330
-0.111584
-0.114847
-0.119031
-0.124335
-0.130849
-0.138196
-0.146574
-0.155305
-0.163780
-0.170650
-0.175341
-0.175681
-0.173797
-0.164358
-0.147314
-0.123202
-0.094429
-0.063724
-0.033518
-0.005533
0.019576
0.041514
0.060377
0.076308
0.089858
0.101882
0.113341
0.124971
0.136857
0.148340
0.158521
0.167037
0.174414
0.181313
0.187397
0.191348
0.191651
0.184154
0.161979
0.126079
0.083818
0.045292
0.018091
0.004163
0.000157
0.000000
0.000000
0.000000
0.000000
0.000000
0.001537
0.010638
0.032235
0.066885
0.109104
0.149144
0.177630
0.190814
0.192632
0.189393
0.183006
0.175641
0.168100
0.159947
0.150450
0.139428
0.127471
0.115344
0.103277
0.090740
0.076770
0.060393
0.040859
0.017705
-0.009117
-0.039352
-0.071828
-0.104402
-0.133842
-0.156800
-0.171343
-0.177976
-0.177146
-0.172273
-0.163596
-0.152754
-0.141287
-0.130261
-0.120379
-0.111984
-0.105154
-0.099602
-0.095197
-0.091827
-0.089370
-0.087670
-0.086624
-0.086263
-0.086624
-0.087670
-0.089370
-0.091827
-0.095197
-0.099602
-0.105154
-0.111984
-0.120379
-0.130261
-0.141287
-0.152754
-0.163596
-0.172273
-0.177146
-0.177976
-0.171343
-0.156800
-0.133842
-0.104402
-0.071828
-0.039352
-0.009117
0.017705
0.040859
0.060393
0.076770
0.090740
0.103277
0.115344
0.127471
0.139428
0.150450
0.159947
0.168100
0.175641
0.183006
0.189393
0.192632
0.190814
0.177630
0.149144
0.109104
0.066885
0.032235
0.010638
0.001539
0.000000
0.000000
0.000000
0.000000
0.000281
0.005173
0.020778
0.050030
0.090160
0.132793
0.167591
0.187522
0.193105
0.191453
0.185538
0.177572
0.169490
0.161515
0.152759
0.142474
0.130782
0.118357
0.105689
0.092591
0.078233
0.061561
0.041641
0.017790
-0.010314
-0.042284
-0.076787
-0.111006
-0.141097
-0.163194
-0.175387
-0.177588
-0.176053
-0.167408
-0.154943
-0.140395
-0.126756
-0.114820
-0.104772
-0.096529
-0.090039
-0.085101
-0.081371
-0.078412
-0.076157
-0.074560
-0.073511
-0.072902
-0.072711
-0.072902
-0.073511
-0.074560
-0.076157
-0.078412
-0.081371
-0.085101
-0.090039
-0.096529
-0.104772
-0.114820
-0.126756
-0.140395
-0.154943
-0.167408
-0.176053
-0.177588
-0.175387
-0.163194
-0.141097
-0.111006
-0.076787
-0.042284
-0.010314
0.017790
0.041641
0.061561
0.078233
0.092591
0.105689
0.118357
0.130782
0.142474
0.152759
0.161515
0.169490
0.177572
0.185538
0.191453
0.193105
0.187522
0.167591
0.132793
0.090160
0.050030
0.020780
0.005163
-0.000194
0.000000
0.000000
-0.000004
0.001798
0.011645
0.034424
0.070317
0.113315
0.153276
0.180861
0.192092
0.193076
0.188278
0.180241
0.171546
0.163297
0.155051
0.145703
0.134680
0.122294
0.109152
0.095448
0.080681
0.063856
0.043873
0.019782
-0.008990
-0.042258
-0.078433
-0.114301
-0.145286
-0.166939
-0.177355
-0.178978
-0.172939
-0.161180
-0.145659
-0.129317
-0.114065
-0.101789
-0.092435
-0.085407
-0.079954
-0.075806
-0.072770
-0.070580
-0.068858
-0.067508
-0.066500
-0.065869
-0.065553
-0.065479
-0.065553
-0.065869
-0.066500
-0.067508
-0.068858
-0.070580
-0.072770
-0.075806
-0.079954
-0.085407
-0.092435
-0.101789
-0.114065
-0.129317
-0.145659
-0.161180
-0.172939
-0.178978
-0.177355
-0.166939
-0.145286
-0.114301
-0.078433
-0.042258
-0.008990
0.019782
0.043873
0.063856
0.080681
0.095448
0.109152
0.122294
0.134680
0.145703
0.155051
0.163297
0.171546
0.180241
0.188278
0.193076
0.192092
0.180861
0.153276
0.113315
0.070319
0.034426
0.011581
-0.000869
0.000000
0.000010
-0.000174
0.005242
0.021139
0.050920
0.091677
0.134758
0.169615
0.189194
0.193575
0.191084
0.183581
0.174333
0.165501
0.157324
0.148782
0.138751
0.126893
0.113627
0.099414
0.084186
0.067231
0.047434
0.023594
-0.005240
-0.039182
-0.076755
-0.114325
-0.146689
-0.168701
-0.178500
-0.178209
-0.170408
-0.155863
-0.137361
-0.119299
-0.104056
-0.092181
-0.083813
-0.077876
-0.073699
-0.070519
-0.068038
-0.066176
-0.064845
-0.063806
-0.062938
-0.062208
-0.061748
-0.061552
-0.061527
-0.061552
-0.061748
-0.062208
-0.062938
-0.063806
-0.064845
-0.066176
-0.068038
-0.070519
-0.073699
-0.077876
-0.083813
-0.092181
-0.104056
-0.119299
-0.137361
-0.155863
-0.170408
-0.178209
-0.178500
-0.168701
-0.146689
-0.114325
-0.076755
-0.039182
-0.005240
0.023594
0.047434
0.067231
0.084186
0.099414
0.113627
0.126893
0.138751
0.148782
0.157324
0.165501
0.174333
0.183581
0.191084
0.193575
0.189194
0.169615
0.134759
0.091683
0.050905
0.021005
-0.002016
-0.000002
0.000086
-0.000658
0.011059
0.033428
0.069296
0.112701
0.153317
0.181500
0.193070
0.193315
0.187536
0.178230
0.168538
0.159867
0.151705
0.142704
0.131804
0.118896
0.104462
0.088816
0.071683
0.052165
0.028945
0.000686
-0.033243
-0.071704
-0.111038
-0.145372
-0.168811
-0.178750
-0.178101
-0.168640
-0.151400
-0.131093
-0.111956
-0.096496
-0.085473
-0.078158
-0.073500
-0.070047
-0.067471
-0.065385
-0.063662
-0.062246
-0.061198
-0.060365
-0.059646
-0.058998
-0.058601
-0.058424
-0.058404
-0.058424
-0.058601
-0.058998
-0.059646
-0.060365
-0.061198
-0.062246
-0.063662
-0.065385
-0.067471
-0.070047
-0.073500
-0.078158
-0.085473
-0.096496
-0.111956
-0.131093
-0.151400
-0.168640
-0.178101
-0.178750
-0.168811
-0.145372
-0.111038
-0.071704
-0.033243
0.000686
0.028945
0.052165
0.071683
0.088816
0.104462
0.118896
0.131804
0.142704
0.151705
0.159867
0.168538
0.178230
0.187536
0.193315
0.193070
0.181500
0.153322
0.112709
0.069227
0.033225
-0.003580
-0.000064
0.000251
-0.001514
0.019411
0.047981
0.088449
0.132188
0.168320
0.189033
0.193914
0.191223
0.182962
0.172688
0.163067
0.154691
0.146442
0.136737
0.124687
0.110442
0.094548
0.077220
0.057975
0.035599
0.008445
-0.024738
-0.063468
-0.104361
-0.141213
-0.167208
-0.178538
-0.178266
-0.167988
-0.149448
-0.127170
-0.106879
-0.091556
-0.081276
-0.074843
-0.070823
-0.068074
-0.065687
-0.063641
-0.061789
-0.060232
-0.058881
-0.057888
-0.057051
-0.056328
-0.055684
-0.055332
-0.055174
-0.055161
-0.055174
-0.055332
-0.055684
-0.056328
-0.057051
-0.057888
-0.058881
-0.060232
-0.061789
-0.063641
-0.065687
-0.068074
-0.070823
-0.074843
-0.081276
-0.091556
-0.106879
-0.127170
-0.149448
-0.167988
-0.178266
-0.178538
-0.167208
-0.141213
-0.104361
-0.063468
-0.024738
0.008445
0.035599
0.057975
0.077220
0.094548
0.110442
0.124687
0.136737
0.146442
0.154691
0.163067
0.172688
0.182962
0.191223
0.193914
0.189034
0.168330
0.132189
0.088270
0.047720
-0.005491
-0.000292
0.000499
-0.002839
0.030150
0.064056
0.107318
0.149271
0.179500
0.192724
0.193658
0.187874
0.177825
0.167217
0.157972
0.149874
0.141308
0.130619
0.117167
0.101361
0.083845
0.064751
0.043253
0.017606
-0.014083
-0.052279
-0.094311
-0.133971
-0.163479
-0.177569
-0.178711
-0.168747
-0.149462
-0.126049
-0.104349
-0.088558
-0.078756
-0.073093
-0.069564
-0.066874
-0.064432
-0.062214
-0.060240
-0.058371
-0.056805
-0.055455
-0.054512
-0.053675
-0.052948
-0.052299
-0.051984
-0.051841
-0.051838
-0.051841
-0.051984
-0.052299
-0.052948
-0.053675
-0.054512
-0.055455
-0.056805
-0.058371
-0.060240
-0.062214
-0.064432
-0.066874
-0.069564
-0.073093
-0.078756
-0.088558
-0.104349
-0.126049
-0.149462
-0.168747
-0.178711
-0.177569
-0.163479
-0.133971
-0.094311
-0.052279
-0.014083
0.017606
0.043253
0.064751
0.083845
0.101361
0.117167
0.130619
0.141308
0.149874
0.157972
0.167217
0.177825
0.187874
0.193659
0.192726
0.179517
0.149249
0.106940
0.063754
-0.007633
-0.000667
0.000827
-0.004613
0.042892
0.080815
0.125006
0.163418
0.187052
0.194280
0.192029
0.183752
0.172611
0.162075
0.153287
0.145255
0.136024
0.124045
0.109022
0.091627
0.072566
0.051735
0.027694
-0.001882
-0.038561
-0.080922
-0.123302
-0.157183
-0.175484
-0.178758
-0.170771
-0.151775
-0.127346
-0.104458
-0.087540
-0.077474
-0.072092