# vtk DataFile Version 3.0
Created by write_to_vtk2d
ASCII
DATASET STRUCTURED_POINTS
DIMENSIONS 100 100 1
SPACING 1.000000 1.000000 0.0
ORIGIN 0.000000 0.000000 0.0
POINT_DATA 10000
SCALARS p float 1
LOOKUP_TABLE p_table
0.011588
0.029686
0.055918
0.079796
0.093508
0.097003
0.094027
0.087357
0.074921
0.054817
0.036830
0.025503
0.000000
0.000000
0.000000
0.000000
-0.001652
0.025976
0.027218
0.019060
0.008873
0.001768
-0.003195
-0.006266
-0.007899
-0.008933
-0.009911
-0.008829
-0.005329
-0.003421
-0.002910
-0.002029
-0.001113
0.000068
0.001831
0.005176
0.002550
0.004974
0.007223
0.008910
0.009755
0.010362
0.010728
0.010857
0.013928
0.020010
0.027589
0.039242
0.082509
0.086567
0.000000
0.000000
0.000000
0.001591
0.008929
0.023645
0.043117
0.061801
0.075285
0.083059
0.086890
0.086672
0.081356
0.061542
0.026148
-0.014377
-0.043351
-0.050915
-0.043729
-0.027272
-0.011838
-0.004543
-0.004704
-0.007820
-0.011362
-0.014171
-0.016440
-0.018519
-0.020378
-0.022074
-0.022778
-0.023908
-0.025312
-0.027703
-0.029888
-0.031596
-0.033192
-0.034858
-0.035471
-0.045190
0.000000
0.000000
0.000000
0.000000
0.000000
0.000000
0.000000
0.000000
0.000000
0.000000
0.000000
0.000000
0.111547
0.098064
0.134189
0.120687
0.075332
0.010363
-0.045076
-0.063205
-0.065706
-0.052954
-0.027069
-0.006970
-0.001734
-0.004200
-0.008240
-0.010093
-0.010224
-0.011335
0.000000
0.000000
0.000000
0.000000
-0.027621
-0.025251
-0.023712
-0.020353
-0.018319
-0.017461
-0.018162
-0.013473
-0.017070
-0.017058
-0.018928
-0.023219
-0.026451
-0.031828
-0.034922
-0.034110
-0.027887
-0.024886
-0.036437
-0.031918
-0.000573
0.006869
0.017600
0.032684
0.079167
0.045719
0.010049
0.027200
0.049972
0.071162
0.085080
0.091233
0.092482
0.090742
0.081994
0.056532
0.014801
-0.030436
-0.059922
-0.065664
-0.053238
-0.030319
-0.010280
-0.001297
-0.001325
-0.004783
-0.009024
-0.012456
-0.015170
-0.017550
-0.019514
-0.020937
-0.021738
-0.022698
-0.023744
-0.025852
-0.028109
-0.030081
-0.031800
-0.033616
-0.034852
-0.042248
0.000000
0.000000
0.000000
0.000000
0.000000
0.000000
0.000000
0.000000
0.000000
0.000000
0.000000
0.000000
0.000000
0.001525
0.010288
0.029223
0.011106
-0.036907
-0.064714
-0.097161
-0.095402
-0.073168
-0.040073
-0.018616
-0.011113
-0.015430
-0.025825
-0.030004
-0.029313
-0.024879
-0.021303
-0.022671
-0.024008
-0.022518
-0.018944
-0.017895
-0.014592
-0.009990
-0.006389
-0.004037
-0.003709
0.001477
0.000000
0.000000
0.000000
0.000000
-0.035049
-0.033981
-0.035606
-0.036027
-0.036808
-0.036561
-0.035876
-0.032110
-0.012027
-0.008775
0.003336
0.030455
0.062781
0.087647
0.090856
0.056332
-0.024733
-0.037351
0.094394
0.099763
0.098897
0.095696
0.083387
0.053788
0.007734
-0.041389
-0.072641
-0.078008
-0.063327
-0.036039
-0.011750
-0.000175
0.000734
-0.002414
-0.006833
-0.010646
-0.013696
-0.016310
-0.018558
-0.020307
-0.021453
-0.022472
-0.023436
-0.024724
-0.026401
-0.028360
-0.030095
-0.031944
-0.033368
-0.039404
0.000000
0.000000
0.000000
0.000000
0.000000
0.000000
0.000000
0.000000
0.000000
0.000000
0.000000
0.000000
0.000000
0.001150
0.009613
0.029388
0.057656
0.085232
0.103009
0.108495
-0.061260
-0.022943
-0.043675
-0.026017
-0.025111
-0.028949
-0.032147
-0.033537
-0.025549
-0.019980
-0.017507
-0.019523
-0.023574
-0.024417
-0.023823
-0.022982
-0.019218
-0.015316
-0.013899
-0.011632
-0.011497
-0.007659
-0.011223
-0.010888
-0.014937
-0.018887
-0.021474
-0.026901
-0.031618
-0.032999
-0.035187
-0.040257
-0.043254
-0.057716
0.000000
0.000000
0.000000
0.000000
0.073163
0.105144
0.132477
0.137080
0.124136
0.103401
0.079554
0.062338
0.026651
0.031023
0.085817
0.053308
0.004283
-0.048055
-0.082571
-0.089617
-0.074749
-0.045040
-0.016653
-0.001238
0.001282
-0.000837
-0.004601
-0.008343
-0.011604
-0.014508
-0.016967
-0.018962
-0.020795
-0.021949
-0.023119
-0.023836
-0.024822
-0.026634
-0.028515
-0.030493
-0.032213
-0.036999
0.000000
0.000000
0.000000
0.000000
0.000000
0.000000
0.000000
0.000000
0.000000
0.000000
0.000000
0.000000
0.000000
0.000688
0.008183
0.027833
0.057993
0.089269
0.110569
0.117643
0.115563
0.108076
0.089956
0.055371
0.043773
0.045998
0.010096
0.008282
-0.009229
-0.015307
-0.020379
-0.022474
-0.027838
-0.031438
-0.029938
-0.029052
-0.022270
-0.016523
-0.014832
-0.013443
-0.014345
-0.012115
-0.014321
-0.014721
-0.018535
-0.020808
-0.021309
-0.023990
-0.028363
-0.030451
-0.032961
-0.035501
-0.036471
-0.035203
-0.026795
-0.018684
-0.005987
0.016930
0.049045
0.089414
0.121309
0.133302
0.130615
0.118790
0.101309
0.107033
0.000000
0.000000
0.000000
0.000000
-0.029772
-0.037134
-0.089626
-0.099483
-0.086242
-0.056301
-0.024686
-0.004870
0.000801
0.000055
-0.002771
-0.005951
-0.009085
-0.012231
-0.015116
-0.017636
-0.020359
-0.022206
-0.022818
-0.022595
-0.022996
-0.024551
-0.026320
-0.028267
-0.029766
-0.034827
0.000000
0.000000
0.000000
0.000000
0.000000
0.000000
0.000000
0.000000
0.000000
0.000000
0.000000
0.000000
0.000000
0.000273
0.006253
0.024692
0.055755
0.090610
0.116672
0.126813
0.124892
0.115924
0.095956
0.060053
0.007880
-0.049750
-0.092902
-0.105718
-0.021402
-0.024214
-0.000994
0.011314
0.007593
-0.000093
-0.009940
-0.017665
-0.022614
-0.024335
-0.021159
-0.020106
-0.018272
-0.012903
-0.014592
-0.013769
-0.016865
-0.018460
-0.018155
-0.019253
-0.022099
-0.024576
-0.028242
-0.031687
-0.033431
-0.034367
-0.029731
-0.021961
-0.008657
0.014034
0.043831
0.086134
0.126179
0.150614
0.164107
0.174312
0.173688
0.145577
0.083303
0.005253
-0.068576
-0.097571
-0.090568
-0.069465
-0.056203
-0.045158
-0.039788
-0.032879
-0.035192
-0.011243
-0.001021
-0.000087
-0.001662
-0.003830
-0.006319
-0.009287
-0.012476
-0.015584
-0.018996
-0.021405
-0.022330
-0.022577
-0.022970
-0.023533
-0.024432
-0.025730
-0.026823
-0.032924
0.000000
0.000000
0.000000
0.000000
0.000000
0.000000
0.000000
0.000000
0.000000
0.000000
0.000000
0.000000
0.000000
0.000000
0.004154
0.020396
0.051009
0.088864
0.120551
0.135206
0.134758
0.125479
0.104108
0.067403
0.014657
-0.044883
-0.092227
-0.111545
-0.106557
-0.081523
-0.047818
-0.020358
0.001782
-0.014851
-0.018149
-0.016678
0.000000
0.000000
0.000000
0.000000
-0.017625
-0.011371
-0.016866
-0.017603
-0.021305
-0.022214
-0.021551
-0.021586
-0.021999
-0.022803
-0.025364
-0.029056
-0.033215
-0.036230
-0.032717
-0.024949
-0.011951
0.008520
0.036026
0.077587
0.122065
0.153291
0.170445
0.190494
0.200121
0.170767
0.108263
0.024060
-0.057902
-0.104195
-0.107639
-0.107297
-0.101161
-0.076296
-0.049435
-0.032682
-0.024883
-0.020780
-0.022773
-0.025497
-0.002131
-0.003290
-0.004676
-0.006801
-0.009641
-0.012730
-0.016322
-0.019283
-0.021129
-0.021838
-0.022082
-0.022450
-0.022926
-0.023812
-0.024363
-0.030792
0.000000
0.000000
0.000000
0.000000
0.000000
0.000000
0.000000
0.000000
0.000000
0.000000
0.000000
0.000000
0.000000
0.000000
0.002229
0.015324
0.044097
0.083793
0.121056
0.142589
0.145151
0.136514
0.114642
0.077387
0.024788
-0.035723
-0.087439
-0.114083
-0.113950
-0.094034
-0.062253
-0.032383
-0.013381
-0.005378
-0.003615
-0.003599
-0.016815
-0.021372
-0.029499
-0.025188
-0.022344
-0.014314
-0.013097
-0.010605
-0.011214
-0.011312
-0.011289
-0.015096
0.000000
0.000000
0.000000
0.000000
-0.024950
-0.024050
-0.022536
-0.018128
-0.008183
0.006894
0.029308
0.068534
0.116611
0.155398
0.175201
0.195328
0.207705
0.192768
0.132342
0.049462
-0.036181
-0.097984
-0.108273
-0.114791
-0.118434
-0.103130
-0.074299
-0.051117
-0.037070
-0.026521
-0.015273
-0.004084
-0.001146
-0.007633
-0.011149
-0.012190
-0.006996
-0.009690
-0.013118
-0.016080
-0.018694
-0.020585
-0.021605
-0.021900
-0.022020
-0.022471
-0.022358
-0.027923
0.000000
0.000000
0.000000
0.000000
0.000000
0.000000
0.000000
0.000000
0.000000
0.000000
0.000000
0.000000
0.000000
0.000000
0.000818
0.010194
0.035449
0.075182
0.117535
0.146962
0.154833
0.148795
0.127461
0.090324
0.038337
-0.022543
-0.078243
-0.112045
-0.118924
-0.106023
-0.077807
-0.046846
-0.023859
-0.011501
-0.006599
-0.004913
-0.004245
-0.004371
-0.005176
-0.007026
-0.018777
-0.014550
-0.016952
-0.014677
-0.016476
-0.017486
-0.017171
-0.018601
-0.019203
-0.017066
-0.016512
-0.019864
-0.023946
-0.025543
-0.023601
-0.019667
-0.013893
-0.006239
0.007081
0.024873
0.000000
0.000000
0.000000
0.000000
0.208076
0.201160
0.151292
0.073414
-0.013089
-0.084528
-0.109854
-0.112721
-0.117874
-0.116669
-0.094215
-0.069717
-0.052263
-0.038657
-0.024666
-0.009825
0.000012
-0.003672
-0.010218
-0.014533
-0.013299
-0.009642
-0.010335
-0.009140
-0.015886
-0.018317
-0.019879
-0.020528
-0.020805
-0.021200
-0.020814
-0.025738
0.000000
0.000000
0.000000
0.000000
0.000000
0.000000
0.000000
0.000000
0.000000
0.000000
0.000000
0.000000
0.000000
0.000000
0.000042
0.005667
0.025973
0.063452
0.109139
0.146819
0.164359
0.161471
0.142523
0.106588
0.055397
-0.005589
-0.064830
-0.106561
-0.120146
-0.115394
-0.093089
-0.063336
-0.037311
-0.020367
-0.011672
-0.007589
-0.005438
-0.004369
-0.004343
-0.005336
-0.007338
-0.009808
-0.012695
-0.015147
-0.024103
-0.019088
-0.019361
-0.021121
-0.020334
-0.019074
-0.017172
-0.017778
-0.020790
-0.023774
-0.025757
-0.025454
-0.019258
-0.009824
0.007871
0.038051
0.085175
0.138588
0.177439
0.188975
0.185687
0.167776
0.135538
0.079112
0.008755
-0.045564
-0.066241
-0.060563
0.000000
0.000000
0.000000
0.000000
-0.068839
-0.041797
-0.028139
-0.013748
-0.001459
-0.000638
-0.008260
-0.015974
-0.021594
-0.024437
-0.023777
-0.019822
-0.017794
-0.016445
-0.013632
-0.011561
-0.019085
-0.019626
-0.019328
-0.024022
0.000000
0.000000
0.000000
0.000000
0.000000
0.000000
0.000000
0.000000
0.000000
0.000000
0.000000
0.000000
0.000000
0.000000
0.000000
0.002351
0.016803
0.049541
0.096072
0.141275
0.168948
0.173130
0.159347
0.126009
0.075775
0.014668
-0.047273
-0.095992
-0.120195
-0.121281
-0.106698
-0.080782
-0.053519
-0.032468
-0.019420
-0.012115
-0.007894
-0.005435
-0.004338
-0.004551
-0.005520
-0.007327
-0.009953
-0.012454
-0.014497
-0.015979
-0.017147
-0.018021
-0.021707
-0.017869
-0.017262
-0.019079
-0.018398
-0.017070
-0.015197
-0.013487
-0.012596
-0.010271
0.002565
0.027546
0.069234
0.124043
0.171767
0.196208
0.209220
0.219297
0.207084
0.145913
0.059656
-0.026919
-0.092011
-0.109727
-0.108438
-0.108169
-0.104468
-0.092071
-0.071171
-0.051566
-0.034109
-0.018537
-0.004593
0.001684
-0.006832
-0.009639
0.000000
0.000000
0.000000
0.000000
-0.020612
-0.016583
-0.016466
-0.011595
-0.012072
-0.016675
-0.014541
-0.015284
0.000000
0.000000
0.000000
0.000000
0.000000
0.000000
0.000000
0.000000
0.000000
0.000000
0.000000
0.000000
0.000000
0.000000
0.000000
0.000506
0.009072
0.034965
0.078848
0.129203
0.167749
0.182303
0.175759
0.147866
0.099940
0.039144
-0.024691
-0.079230
-0.113062
-0.121980
-0.116465
-0.097130
-0.071637
-0.048120
-0.030726
-0.019567
-0.012647
-0.008321
-0.005615
-0.004422
-0.004458
-0.005397
-0.007339
-0.009503
-0.011768
-0.013480
-0.014918
-0.015913
-0.015537
-0.019747
0.000000
0.000000
-0.018429
-0.019265
-0.019001
-0.022855
-0.023175
-0.020203
-0.011181
0.009862
0.047118
0.098601
0.153884
0.191871
0.204462
0.213075
0.215290
0.179766
0.103674
0.016582
-0.059713
-0.106036
-0.105960
-0.104426
-0.102010
-0.099442
-0.094734
-0.079426
-0.059636
-0.039193
-0.019461
-0.003844
-0.000505
-0.008835
-0.015847
-0.021121
-0.023119
-0.020247
-0.015874
-0.013694
-0.012593
-0.008612
-0.008194
-0.011224
-0.011700
-0.013091
0.000000
0.000000
0.000000
0.000000
0.000000
0.000000
0.000000
0.000000
0.000000
0.000000
0.000000
0.000000
0.000000
0.000000
0.000000
0.000000
0.003638
0.021491
0.059142
0.110637
0.159256
0.186615
0.189259
0.170168
0.127701
0.068997
0.004039
-0.055927
-0.099690
-0.120443
-0.121606
-0.110352
-0.090012
-0.066656
-0.045912
-0.030552
-0.020011
-0.012845
-0.008014
-0.005268
-0.004232
-0.004281
-0.005291
-0.006916
-0.009109
-0.011107
-0.012715
-0.013769
-0.013710
-0.018116
0.000000
0.000000
0.000000
0.000000
0.000000
0.000000
0.000000
0.000000
0.000000
0.004601
0.029129
0.072222
0.126998
0.176824
0.202160
0.207746
0.212910
0.205678
0.148096
0.066582
-0.014497
-0.079208
-0.105348
-0.101962
-0.098062
-0.093784
-0.090380
-0.087953
-0.074363
-0.054968
-0.033968
-0.014947
-0.002220
-0.003943
-0.012548
-0.016621
-0.017175
-0.012963
-0.008239
-0.009683
-0.013256
-0.012336
-0.017085
-0.022225
-0.021809
-0.020154
-0.019139
-0.018180
-0.018154
-0.018995
-0.017889
-0.017492
-0.013393
-0.002470
0.000000
0.000000
0.000000
0.000000
0.000000
0.000000
0.000000
0.000000
0.000766
0.010766
0.039414
0.087083
0.141499
0.182854
0.197033
0.189910
0.157749
0.103960
0.039109
-0.025518
-0.078514
-0.110809
-0.120287
-0.118599
-0.106116
-0.086559
-0.065540
-0.047014
-0.032239
-0.021000
-0.012716
-0.007295
-0.004545
-0.003501
-0.003516
-0.004367
-0.006236
-0.008310
-0.010196
-0.011600
-0.012375
-0.016974
0.000000
0.000000
0.000000
0.000000
0.000000
0.000000
0.000000
0.000000
0.000000
0.000000
-0.004093
0.032972
0.087762
0.138797
0.161060
0.162139
0.000000
0.000000
0.000000
0.000000
0.049477
-0.044447
-0.094217
-0.104816
-0.100314
-0.092310
-0.084850
-0.080054
-0.075162
-0.065599
-0.048466
-0.029804
-0.013959
-0.004161
-0.007431
-0.015157
-0.017672
-0.017540
-0.013607
-0.009569
-0.012664
-0.012673
-0.017296
-0.020271
-0.021088
-0.020950
-0.019044
-0.018467
-0.020177
-0.021690
-0.021890
-0.019208
-0.018988
-0.015269
-0.004441
0.023752
0.097217
0.130332
0.000000
0.000000
0.000000
0.000000
0.000000
0.003813
0.022272
0.061490
0.116029
0.168357
0.199126
0.204223
0.185213
0.140813
0.078998
0.012188
-0.047708
-0.091382
-0.114514
-0.120030
-0.115422
-0.103444
-0.086328
-0.067988
-0.050675
-0.035587
-0.023309
-0.014198
-0.008040
-0.004229
-0.002685
-0.002393
-0.003421
-0.005288
-0.007354
-0.009344
-0.011001
-0.016151
0.000000
0.000000
0.000000
0.000000
0.000000
0.000000
0.000000
0.000000
0.000000
0.000000
0.000000
0.000000
0.000000
0.000000
0.171428
0.185651
0.217619
0.212785
0.203841
0.156163
0.082844
0.008674
-0.051057
-0.090315
-0.092719
-0.079068
-0.053490
-0.032351
0.000000
0.000000
0.000000
0.000000
-0.030174
-0.013039
-0.007538
-0.010363
-0.018684
-0.021972
-0.024540
-0.023552
-0.021839
-0.022141
-0.023371
-0.024154
-0.023998
-0.022990
-0.021853
-0.020989
-0.022982
-0.024848
-0.024310
-0.022678
-0.018081
-0.019279
-0.015082
-0.018049
-0.010619
0.010998
0.030816
0.062641
0.160514
0.180472
0.000000
0.000596
0.009763
0.037544
0.085732
0.143061
0.189758
0.211418
0.206260
0.174821
0.121314
0.056493
-0.007516
-0.060529
-0.096273
-0.113556
-0.117439
-0.113424
-0.103387
-0.089466
-0.073094
-0.056487
-0.041546
-0.028803
-0.018394
-0.010386
-0.005264
-0.002656
-0.002429
-0.003578
-0.005224
-0.007595
-0.009649
-0.016114
0.000000
0.000000
0.000000
0.000000
0.000000
0.000000
0.000000
0.000000
0.000000
0.000000
0.000000
0.000000
0.000000
0.000000
0.000000
0.000000
0.000000
0.000000
0.156452
0.140260
0.146587
0.070069
0.010061
-0.042003
-0.082020
-0.090558
-0.085174
-0.073582
-0.068667
-0.062814
-0.054146
-0.048464
-0.041115
-0.031500
-0.023258
-0.018060
-0.016806
-0.021761
-0.022455
-0.017586
0.000000
0.000000
0.000000
0.000000
-0.018059
-0.017771
-0.018422
-0.019171
-0.020754
-0.024066
-0.026311
-0.027296
-0.027765
-0.026625
-0.022228
-0.019663
-0.009756
0.002559
0.009169
0.013339
0.019595
0.031779
0.050232
0.061600
0.080998
0.061542
0.055296
0.109723
0.166320
0.205645
0.215966
0.202264
0.163284
0.105551
0.040966
-0.018362
-0.064654
-0.094955
-0.110345
-0.114781
-0.112796
-0.105688
-0.094212
-0.080336
-0.065790
-0.051299
-0.037741
-0.025956
-0.016766
-0.010275
-0.006741
-0.005538
-0.005930
-0.008010
-0.010127
-0.017954
0.000000
0.000000
0.000000
0.000000
0.000000
0.000000
0.000000
0.000000
0.000000
0.000000
0.000000
0.000000
0.000000
0.000000
0.000000
0.000000
0.000000
0.000000
0.000109
0.006463
0.029522
0.073720
0.006690
-0.047092
-0.061154
-0.089149
-0.083269
-0.074814
-0.066748
-0.059909
-0.052626
-0.044360
-0.040083
-0.038873
-0.034666
-0.029144
-0.023751
-0.021760
-0.026693
-0.030693
-0.033777
-0.032923
-0.036718
-0.035126
-0.033316
-0.031820
-0.029843
-0.026372
-0.022506
-0.020072
-0.018712
-0.019546
0.000000
0.000000
0.000000
0.000000
0.000000
0.000000
0.000000
0.000000
0.000434
0.003228
0.012287
0.031495
0.073110
0.124669
0.157134
0.144794
0.056674
0.012702
0.213929
0.217006
0.197457
0.152731
0.093291
0.032104
-0.020954
-0.061218
-0.088122
-0.103743
-0.109864
-0.110119
-0.106490
-0.099276
-0.089007
-0.076555
-0.063192
-0.050011
-0.038105
-0.027987
-0.020480
-0.015767
-0.013495
-0.013509
-0.014454
-0.020905
0.000000
0.000000
0.000000
0.000000
0.000000
0.000000
0.000000
0.000000
0.000000
0.000000
0.000000
0.000000
0.000000
0.000000
0.000000
0.000000
0.000000
0.000000
0.000000
0.001030
0.011752
0.041396
0.091113
0.149549
0.197135
0.219776
-0.004868
-0.039076
-0.087500
-0.068647
-0.061877
-0.054360
-0.039613
-0.031048
-0.026189
-0.028024
-0.029053
-0.025347
-0.024863
-0.029641
-0.036025
-0.031860
-0.034001
-0.029977
-0.026471
-0.026273
-0.027353
-0.030179
-0.034077
-0.035913
-0.037307
-0.036657
-0.033859
-0.028032
-0.014067
-0.007431
0.006054
0.011489
0.013142
0.012070
0.009839
0.007636
0.006505
0.006204
0.000000
0.000000
0.000000
0.000000
0.193174
0.182969
0.150530
0.101150
0.037826
0.014932
0.143399
0.085879
0.030275
-0.016184
-0.051198
-0.075997
-0.092635
-0.102829
-0.106518
-0.104859
-0.101374
-0.094715
-0.085315
-0.074602
-0.063114
-0.051783
-0.041546
-0.033269
-0.027152
-0.023140
-0.020689
-0.020836
0.000000
0.000000
0.000000
0.000000
0.000000
0.000000
0.000000
0.000000
0.000000
0.000000
0.000000
0.000000
0.000000
0.000000
0.000000
0.000000
0.000000
0.000000
0.000000
0.000000
0.002640
0.017811
0.052890
0.105853
0.163036
0.205136
0.218951
0.214193
0.185445
0.138204
-0.023608
-0.006223
-0.041064
-0.027854
-0.036215
-0.035542
-0.032186
-0.028309
-0.026354
-0.024781
-0.026968
-0.030118
-0.029020
-0.030236
-0.028201
-0.026530
-0.026317
-0.028174
-0.032632
-0.037510
-0.040655
-0.040216
-0.037159
-0.027110
-0.007566
0.001678
0.009270
0.012569
0.013468
0.011971
0.009744
0.008018
0.004987
0.002659
0.001365
0.021831
0.065379
0.126712
0.172583
0.188588
0.184237
0.159923
0.129098
0.102179
0.078707
0.075655
0.000000
0.000000
-0.004367
-0.035070
-0.058595
-0.076786
-0.089809
-0.097224
-0.099780
-0.098589
-0.094492
-0.088703
-0.080742
-0.071118
-0.060748
-0.050612
-0.041175
-0.032460
-0.024819
-0.018372
0.000000
0.000000
0.000000
0.000000
0.000000
0.000000
0.000000
0.000000
0.000000
0.000000
0.000000
0.000000
0.000000
0.000000
0.000000
0.000000
0.000000
0.000000
0.000000
0.000000
0.000000
0.004767
0.023832
0.062717
0.116949
0.171560
0.208736
0.219742
0.210467
0.181266
0.136803
0.089032
0.046717
0.012551
0.000000
0.000000
0.000000
0.000000
-0.017394
-0.021289
-0.024803
-0.025234
-0.022211
-0.030598
-0.032567
-0.032128
-0.030694
-0.030149
-0.030308
-0.030613
-0.033485
-0.034138
-0.032232
-0.021605
-0.003924
0.010736
0.015072
0.012572
0.012880
0.010862
0.008251
0.005705
0.002429
0.000687
0.000094
0.000665
0.021902
0.065586
0.123314
0.168772
0.182196
0.179310
0.165690
0.151059
0.130731
0.099734
0.066290
0.035969
0.013484
-0.004624
-0.011584
0.015134
-0.054547
-0.068890
-0.079303
-0.085629
-0.088148
-0.087077
-0.083248
-0.076307
-0.067684
-0.058143
-0.047218
-0.035159
-0.024226
-0.008304
0.000000
0.000000
0.000000
0.000000
0.000000
0.000000
0.000000
0.000000
0.000000
0.000000
0.000000
0.000000
0.000000
0.000000
0.000000
0.000000
0.000000
0.000000
0.000000
0.000000
0.000000
0.000315
0.006960
0.028914
0.069848
0.123685
0.175250
0.208605
0.218077
0.206714
0.178460
0.138479
0.097304
0.061206
0.032103
0.008999
-0.010116
-0.026679
-0.029016
0.000122
0.008200
0.003036
-0.000455
-0.009970
-0.011137
-0.007536
0.000000
0.000000
0.000000
0.000000
-0.016475
-0.021341
-0.023734
-0.012070
0.000993
0.013467
0.018641
0.016128
0.009875
0.008455
0.006068
0.002792
0.000768
0.000069
0.000000
0.000000
0.000662
0.021328
0.062652
0.116207
0.161428
0.173176
0.170289
0.156192
0.143726
0.129749
0.103871
0.075003
0.050268
0.029322
0.013793
0.007712
0.013321
0.018377
0.043423
0.046516
-0.060450
-0.065161
-0.066527
-0.064759
-0.059818
-0.051894
-0.041597
-0.028467
-0.014697
0.010555
0.000000
0.000000
0.000000
0.000000
0.000000
0.000000
0.000000
0.000000
0.000000
0.000000
0.000000
0.000000
0.000000
0.000000
0.000000
0.000000
0.000000
0.000000
0.000000
0.000000
0.000000
0.000000
0.000699
0.008793
0.032314
0.073580
0.125723
0.174343
0.204909
0.213380
0.202859
0.177445
0.143314
0.107862
0.076897
0.052836
0.033836
0.017766
0.003658
-0.008357
-0.018379
-0.026037
0.024066
0.043923
0.037259
0.020030
0.012293
0.006837
0.002217
0.001782
0.000154
-0.001422
-0.003094
0.010672
0.014314
0.020064
0.022367
0.021775
0.000000
0.000000
0.000000
0.000000
0.000000
0.000000
0.000000
0.000000
0.000000
0.000965
0.020148
0.057891
0.105924
0.150118
0.163236
0.161061
0.146506
0.133622
0.121802
0.103829
0.082072
0.060488
0.041417
0.028302
0.024120
0.030171
0.037179
0.038506
0.037669
0.035264
0.031301
0.039505
-0.030850
-0.026303
-0.018470
-0.006650
0.006127
0.035313
0.000000
0.000000
0.000000
0.000000
0.000000
0.000000
0.000000
0.000000
0.000000
0.000000
0.000000
0.000000
0.000000
0.000000
0.000000
0.000000
0.000000
0.000000
0.000000
0.000000
0.000000
0.000000
0.000000
0.001000
0.009863
0.033571
0.073597
0.123057
0.168789
0.198280
0.207161
0.199158
0.177616
0.148442
0.118884
0.093385
0.072784
0.056836
0.044258
0.033743
0.024520
0.016925
0.011656
0.008667
0.008061
0.010061
0.052798
0.061237
0.051719
0.037438
0.030277
0.027350
0.022324
0.026815
0.020528
0.017036
0.015940
0.012507
0.007084
0.001435
0.000000
0.000000
0.000000
0.000000
0.000000
0.000000
0.000000
0.000000
0.001921
0.013363
0.000000
0.000000
0.000000
0.000000
0.141633
0.130600
0.120964
0.110390
0.099331
0.082590
0.065358
0.051539
0.041952
0.037849
0.041036
0.050214
0.054528
0.054920
0.055565
0.053361
0.048589
0.037771
0.038784
0.034258
0.032004
0.058808
0.000000
0.000000
0.000000
0.000000
0.000000
0.000000
0.000000
0.000000
0.000000
0.000000
0.000000
0.000000
0.000000
0.000000
0.000000
0.000000
0.000000
0.000000
0.000000
0.000000
0.000000
0.000000
0.000000
0.000000
0.001141
0.009938
0.032508
0.069909
0.115865
0.158893
0.188022
0.198288
0.192091
0.176560
0.154125
0.129296
0.107024
0.089974
0.077126
0.066985
0.058734
0.052220
0.047527
0.044482
0.042992
0.043245
0.045372
0.049937
0.053382
0.074188
0.067973
0.061990
0.055626
0.051329
0.028584
0.019914
0.013414
0.006533
0.002889
0.000967
0.000000
0.000000
0.000000
0.000000
0.000000
0.000000
0.000000
0.000000
0.000000
0.000713
0.015169
0.042775
0.078094
0.113272
0.134867
0.137496
0.125431
0.107715
0.089413
0.071693
0.059337
0.064718
0.000000
0.000000
0.000000
0.000000
0.051330
0.057035
0.060889
0.058379
0.059407
0.056313
0.056964
0.043877
0.036820
0.034310
0.023041
0.023927
0.000000
0.000000
0.000000
0.000000
0.000000
0.000000
0.000000
0.000000
0.000000
0.000000
0.000000
0.000000
0.000000
0.000000
0.000000
0.000000
0.000000
0.000000
0.000000
0.000000
0.000000
0.000000
0.000000
0.001046
0.009007
0.029281
0.062879
0.104575
0.144613
0.173500
0.185655
0.185359
0.173254
0.155604
0.136174
0.118485
0.103782
0.092152
0.083292
0.076717
0.071913
0.068460
0.066198
0.065099
0.064967
0.065817
0.064459
0.079506
0.000000
0.000000
0.000000
0.000000
0.042242
0.037286
0.012249
0.009384
0.005543
0.002622
0.000500
0.000000
-0.000001
-0.000001
-0.000001
-0.000001
-0.000001
-0.000000
-0.000000
0.000000
0.000094
0.011095
0.032928
0.061725
0.091339
0.116201
0.122287
0.117739
0.104590
0.091904
0.080508
0.070602
0.062606
0.054148
0.047491
0.044992
0.048476
0.056425
0.062438
0.062253
0.058722
0.049344
0.048112
0.038219
0.000000
0.000000
0.000000
0.000000
0.041155
0.042396
0.027334
0.034486
0.000000
0.000000
0.000000
0.000000
0.000000
0.000000
0.000000
0.000000
0.000000
0.000000
0.000000
0.000000
0.000000
0.000000
0.000000
0.000000
0.000000
0.000000
0.000000
0.000000
0.000763
0.007264
0.024363
0.053220
0.089911
0.126593
0.155289
0.170474
0.173023
0.165512
0.153987
0.139624
0.125091
0.112233
0.101733
0.093519
0.087116
0.082210
0.078543
0.075851
0.073539
0.071432
0.068065
0.079598
0.000000
0.000000
0.000000
0.000000
0.000000
0.000000
0.000000
0.000000
0.043310
0.039727
0.012604
0.009325
0.007212
0.004494
0.001943
0.000354
0.000029
-0.000000
-0.000000
0.000017
0.000530
0.004010
0.013508
0.029913
0.051552
0.074702
0.096392
0.105585
0.104899
0.097086
0.085484
0.074471
0.064456
0.055825
0.050106
0.044545
0.042187
0.045222
0.051860
0.058426
0.061214
0.059364
0.058961
0.057179
0.055947
0.052501
0.050037
0.048913
0.049966
0.051579
0.053111
0.053546
0.050373
0.058925
0.019862
0.016500
0.000000
0.000000
0.000000
0.000000
0.000000
0.000000
0.000000
0.000000
0.000000
0.000000
0.000000
0.000000
0.000000
0.000000
0.000000
0.000000
0.000000
0.000414
0.005093
0.018474
0.041940
0.072928
0.105538
0.133191
0.151318
0.158585
0.156379
0.147569
0.137271
0.126076
0.115128
0.105581
0.097391
0.090490
0.084762
0.079886
0.075811
0.072703
0.068966
0.075538
0.000000
0.000000
0.000000
0.000000
0.000000
0.000000
0.000000
0.000000
0.000000
0.000000
0.000000
0.000000
0.019344
0.009756
0.000000
0.000000
0.000000
0.000000
0.000000
0.000000
0.000000
0.000000
0.000000
0.000000
0.000000
0.000000
0.000000
0.000000
0.000000
0.000000
0.000000
0.000000
0.000000
0.000000
0.000000
0.000000
0.000000
0.000000
0.000000
0.000000
0.000000
0.000000
0.000000
0.000000
0.000000
0.000000
0.000000
0.000000
0.000000
0.000000
0.000000
0.000000
0.000000
0.000000
0.000000
0.000000
0.000000
0.000000
0.000000
0.000000
0.000000
0.000000
0.000000
0.000000
0.000000
0.000000
0.000000
0.000000
0.000000
0.000000
0.000000
0.000000
0.000000
0.000000
0.000134
0.002968
0.012424
0.030237
0.055016
0.082679
0.108129
0.127289
0.137628
0.140981
0.137631
0.130518
0.121154
0.112228
0.103650
0.095498
0.088150
0.081725
0.076175
0.071405
0.066894
0.065816
0.000000
0.000000
0.000000
0.000000
0.000000
0.000000
0.000000
0.000000
0.000000
0.000000
0.000000
0.000000
0.000000
0.000000
0.000000
0.000000
0.000000
0.000000
0.000000
0.000000
0.000000
0.000000
0.000000
0.000000
0.000000
0.000000
0.000000
0.000000
0.000000
0.000000
0.000000
0.000000
0.000000
0.000000
0.000000
0.000000
0.000000
0.000000
0.000000
0.000000
0.000000
0.000000
0.000000
0.000000
0.000000
0.000000
0.000000
0.000000
0.000000
0.000000
0.000000
0.000000
0.000000
0.000000
0.000000
0.000000
0.000000
0.000000
0.000000
0.000000
0.000000
0.000000
0.000000
0.000000
0.000000
0.000000
0.000000
0.000000
0.000000
0.000000
0.000000
0.000000
0.000000
0.000000
0.000000
0.000000
0.001288
0.007112
0.019400
0.037766
0.059718
0.081560
0.099933
0.112790
0.119402
0.120521
0.117574
0.111841
0.104687
0.097095
0.089472
0.082013
0.074803
0.067859
0.060969
0.054366
0.000000
0.000000
0.000000
0.000000
0.000000
0.000000
0.000000
0.000000
0.000000
0.000000
0.000000
0.000000
0.000000
0.000000
0.000000
0.000000
0.000000
0.000000
0.000000
0.000000
0.000000
0.000000
0.000000
0.000000
0.000000
0.000000
0.000000
0.000000
0.000000
0.000000
0.000000
0.000000
0.000000
0.000000
0.000000
0.000000
0.000000
0.000000
0.000000
0.000000
0.000000
0.000000
0.000000
0.000000
0.000000
0.000000
0.000000
0.000000
0.000000
0.000000
0.000000
0.000000
0.000000
0.000000
0.000000
0.000000
0.000000
0.000000
0.000000
0.000000
0.000000
0.000000
0.000000
0.000000
0.000000
0.000000
0.000000
0.000000
0.000000
0.000000
0.000000
0.000000
0.000000
0.000000
0.000000
0.000000
0.000000
0.000294
0.003125
0.010538
0.022841
0.038764
0.055915
0.071722
0.084286
0.092550
0.096697
0.097250
0.094647
0.089907
0.083803
0.076747
0.069083
0.060960
0.051870
0.043955
0.000000
0.000000
0.000000
0.000000
0.000000
0.000000
0.000000
0.000000
0.000000
0.000000
0.000000
0.000000
0.000000
0.000000
0.000000
0.000000
0.000000
0.000000
0.000000
0.000000
0.000000
0.000000
0.000000
0.000000
0.000000
0.000000
0.000000
0.000000
0.000000
0.000000
0.000000
0.000000
0.000000
0.000000
0.000000
0.000000
0.000000
0.000000
0.000000
0.000000
0.000000
0.000000
0.000000
0.000000
0.000000
0.000000
0.000000
0.000000
0.000000
0.000000
0.000000
0.000000
0.000000
0.000000
0.000000
0.000000
0.000000
0.000000
0.000000
0.000000
0.000000
0.000000
0.000000
0.000000
0.000000
0.000000
0.000000
0.000000
0.000000
0.000000
0.000000
0.000000
0.000000
0.000000
0.000000
0.000000
0.000000
0.000000
0.000000
0.000866
0.004404
0.011445
0.021580
0.033485
0.045459
0.055950
0.063962
0.068925
0.071218
0.070588
0.067702
0.062927
0.056723
0.049191
0.040113
0.032385
0.000000
0.000000
0.000000
0.000000
0.000000
0.000000
0.000000
0.000000
0.000000
0.000000
0.000000
0.000000
0.000000
0.000000
0.000000
0.000000
0.000000
0.000000
0.000000
0.000000
0.000000
0.000000
0.000000
0.000000
0.000000
0.000000
0.000000
0.000000
0.000000
0.000000
0.000000
0.000000
0.000000
0.000000
0.000000
0.000000
0.000000
0.000000
0.000000
0.000000
0.000000
0.000000
0.000000
0.000000
0.000000
0.000000
0.000000
0.000000
0.000000
0.000000
0.000000
0.000000
0.000000
0.000000
0.000000
0.000000
0.000000
0.000000
0.000000
0.000000
0.000000
0.000000
0.000000
0.000000
0.000000
0.000000
0.000000
0.000000
0.000000
0.000000
0.000000
0.000000
0.000000
0.000000
0.000000
0.000000
0.000000
0.000000
0.000000
0.000000
0.000066
0.001083
0.004173
0.009493
0.016489
0.024188
0.031524
0.037637
0.041925
0.044183
0.044395
0.042551
0.038850
0.033570
0.026767
0.020592
0.000000
0.000000
0.000000
0.000000
0.000000
0.000000
0.000000
0.000000
0.000000
0.000000
0.000000
0.000000
0.000000
0.000000
0.000000
0.000000
0.000000
0.000000
0.000000
0.000000
0.000000
0.000000
0.000000
0.000000
0.000000
0.000000
0.000000
0.000000
0.000000
0.000000
0.000000
0.000000
0.000000
0.000000
0.000000
0.000000
0.000000
0.000000
0.000000
0.000000
0.000000
0.000000
0.000000
0.000000
0.000000
0.000000
0.000000
0.000000
0.000000
0.000000
0.000000
0.000000
0.000000
0.000000
0.000000
0.000000
0.000000
0.000000
0.000000
0.000000
0.000000
0.000000
0.000000
0.000000
0.000000
0.000000
0.000000
0.000000
0.000000
0.000000
0.000000
0.000000
0.000000
0.000000
0.000000
0.000000
0.000000
0.000000
0.000000
0.000000
0.000000
0.000000
0.000058
0.000764
0.002721
0.005862
0.009770
0.013827
0.017452
0.020153
0.021681
0.021853
0.020467
0.017951
0.014187
0.010023
0.000000
0.000000
0.000000
0.000000
0.000000
0.000000
0.000000
0.000000
0.000000
0.000000
0.000000
0.000000
0.000000
0.000000
0.000000
0.000000
0.000000
0.000000