# vtk DataFile Version 3.0
Created by write_to_vtk2d
ASCII
DATASET STRUCTURED_POINTS
DIMENSIONS 100 100 1
SPACING 1.000000 1.000000 0.0
ORIGIN 0.000000 0.000000 0.0
POINT_DATA 10000
SCALARS p float 1
LOOKUP_TABLE p_table
0.000000
0.000000
0.000000
0.000000
0.000000
0.000000
0.000000
0.000000
0.000000
0.000000
0.000000
0.000000
0.000000
0.000000
0.000000
0.000000
0.000000
0.000000
0.000000
0.000000
0.000000
0.000000
0.000000
0.000000
0.000000
0.000000
0.000000
0.000000
0.000000
0.000000
0.000000
0.000000
0.000000
0.000000
0.000000
0.000000
0.000000
0.000000
0.000000
0.000000
0.000000
0.000000
0.000000
0.000000
0.000000
0.000000
0.000000
0.000000
0.000000
0.000000
0.000000
0.000000
0.000000
0.000000
0.000000
0.000000
0.000000
0.000000
0.000000
0.000000
0.000000
0.000000
0.000000
0.000000
0.000000
0.000000
0.000000
0.000000
0.000000
0.000000
0.000000
0.000000
0.000000
0.000000
0.000000
0.000000
0.000000
0.000000
0.000000
0.000000
0.000000
0.000000
0.000000
0.000000
0.000000
0.000000
0.000000
0.000000
0.000000
0.000000
0.000000
0.000000
0.000000
0.000000
0.000000
0.000000
0.000000
0.000000
0.000000
0.000000
0.000000
0.000000
0.000000
0.000000
0.000000
0.000000
0.000000
0.000000
0.000000
0.000000
0.000000
0.000000
0.000000
0.000000
0.000000
0.000000
0.000000
0.000000
0.000000
0.000000
0.000000
0.000000
0.000000
0.000000
0.000000
0.000000
0.000000
0.000000
0.000000
0.000000
0.000000
0.000000
0.000000
0.000000
0.000000
0.000000
0.000000
0.000000
0.000000
0.000000
0.000000
0.000000
0.000000
0.000000
0.000000
0.000000
0.000000
0.000000
0.000000
0.000000
0.000000
0.000000
0.000000
0.000000
0.000000
0.000000
0.000000
0.000000
0.000000
0.000000
0.000000
0.000000
0.000000
0.000000
0.000000
0.000000
0.000000
0.000000
0.000000
0.000000
0.000000
0.000000
0.000000
0.000000
0.000000
0.000000
0.000000
0.000000
0.000000
0.000000
0.000000
0.000000
0.000000
0.000000
0.000000
0.000000
0.000000
0.000000
0.000000
0.000000
0.000000
0.000000
0.000000
0.000000
0.000000
0.000000
0.000000
0.000000
0.000000
0.000000
0.000000
0.000000
0.000000
0.000000
0.000000
0.000000
0.000000
0.000000
0.000000
0.000000
0.000000
0.000000
0.000000
0.000000
0.000000
0.000000
0.000000
0.000000
0.000000
0.000000
0.000000
0.000000
0.000000
0.000000
0.000000
0.000000
0.000000
0.000000
0.000000
0.000000
0.000000
0.000000
0.000000
0.000000
0.000000
0.000000
0.000000
0.000000
0.000000
0.000000
0.000000
0.000000
0.000000
0.000000
0.000000
0.000000
0.000000
0.000000
0.000000
0.000000
0.000000
0.000000
0.000000
0.000000
0.000000
0.000000
0.000000
0.000000
0.000000
0.000000
0.000000
0.000000
0.000000
0.000000
0.000000
0.000000
0.000000
0.000000
0.000000
0.000000
0.000000
0.000000
0.000000
0.000000
0.000000
0.000000
0.000000
0.000000
0.000000
0.000000
0.000000
0.000000
0.000000
0.000000
0.000000
0.000000
0.000000
0.000000
0.000000
0.000000
0.000000
0.000000
0.000000
0.000000
0.000000
0.000000
0.000000
0.000000
0.000000
0.000000
0.000000
0.000000
0.000000
0.000000
0.000000
0.000000
0.000000
0.000000
0.000000
0.000000
0.000000
0.000000
0.000000
0.000000
0.000000
0.000000
0.000000
0.000000
0.000000
0.000000
0.000000
0.000000
0.000000
0.000000
0.000000
0.000000
0.000000
0.000000
0.000000
0.000000
0.000000
0.000000
0.000000
0.000000
0.000000
0.000000
0.000000
0.000000
0.000000
0.000000
0.000000
0.000000
0.000000
0.000000
0.000000
0.000000
0.000000
0.000000
0.000000
0.000000
0.000000
0.000000
0.000000
0.000000
0.000000
0.000000
0.000000
0.000000
0.000000
0.000000
0.000000
0.000000
0.000000
0.000000
0.000000
0.000000
0.000000
0.000000
0.000000
0.000000
0.000000
0.000000
0.000000
0.000000
0.000000
0.000000
0.000000
0.000000
0.000000
0.000000
0.000000
0.000000
0.000000
0.000000
0.000000
0.000000
0.000000
0.000000
0.000000
0.000000
0.000000
0.000000
0.000000
0.000000
0.000000
0.000000
0.000000
0.000000
0.000000
0.000000
0.000000
0.000000
0.000000
0.000000
0.000000
0.000000
0.000000
0.000000
0.000000
0.000000
0.000000
0.000000
0.000000
0.000000
0.000000
0.000000
0.000000
0.000000
0.000000
0.000000
0.000000
0.000000
0.000000
0.000000
0.000000
0.000000
0.000000
0.000000
0.000000
0.000000
0.000000
0.000000
0.000000
0.000000
0.000000
0.000000
0.000000
0.000000
0.000000
0.000000
0.000000
0.000000
0.000000
0.000000
0.000000
0.000000
0.000000
0.000000
0.000000
0.000000
0.000000
0.000000
0.000000
0.000000
0.000000
0.000000
0.000000
0.000000
0.000000
0.000000
0.000000
0.000000
0.000000
0.000000
0.000000
0.000000
0.000000
0.000000
0.000000
0.000000
0.000000
0.000000
0.000000
0.000000
0.000000
0.000000
0.000000
0.000000
0.000000
0.000000
0.000000
0.000000
0.000000
0.000000
0.000000
0.000000
0.000000
0.000000
0.000000
0.000000
0.000000
0.000000
0.000000
0.000000
0.000000
0.000000
0.000000
0.000000
0.000000
0.000000
0.000000
0.000000
0.000000
0.000000
0.000000
0.000000
0.000000
0.000000
0.000000
0.000000
0.000000
0.000000
0.000000
0.000000
0.000000
0.000000
0.000000
0.000000
0.000000
0.000000
0.000000
0.000000
0.000000
0.000000
0.000000
0.000000
0.000000
0.000000
0.000000
0.000000
0.000000
0.000000
0.000000
0.000000
0.000000
0.000000
0.000000
0.000000
0.000000
0.000000
0.000000
0.000000
0.000243
0.000660
0.001219
0.001894
0.002575
0.003187
0.003673
0.003987
0.004109
0.003987
0.003673
0.003187
0.002575
0.001894
0.001219
0.000660
0.000243
0.000000
0.000000
0.000000
0.000000
0.000000
0.000000
0.000000
0.000000
0.000000
0.000000
0.000000
0.000000
0.000000
0.000000
0.000000
0.000000
0.000000
0.000000
0.000000
0.000000
0.000000
0.000000
0.000000
0.000000
0.000000
0.000000
0.000000
0.000000
0.000000
0.000000
0.000000
0.000000
0.000000
0.000000
0.000000
0.000000
0.000000
0.000000
0.000000
0.000000
0.000000
0.000000
0.000000
0.000000
0.000000
0.000000
0.000000
0.000000
0.000000
0.000000
0.000000
0.000000
0.000000
0.000000
0.000000
0.000000
0.000000
0.000000
0.000000
0.000000
0.000000
0.000000
0.000000
0.000000
0.000000
0.000000
0.000000
0.000000
0.000000
0.000000
0.000000
0.000000
0.000000
0.000000
0.000000
0.000000
0.000000
0.000000
0.000000
0.000326
0.001142
0.002527
0.004425
0.006720
0.009289
0.011942
0.014519
0.016864
0.018839
0.020320
0.021242
0.021595
0.021242
0.020320
0.018839
0.016864
0.014519
0.011942
0.009289
0.006720
0.004425
0.002527
0.001142
0.000326
0.000000
0.000000
0.000000
0.000000
0.000000
0.000000
0.000000
0.000000
0.000000
0.000000
0.000000
0.000000
0.000000
0.000000
0.000000
0.000000
0.000000
0.000000
0.000000
0.000000
0.000000
0.000000
0.000000
0.000000
0.000000
0.000000
0.000000
0.000000
0.000000
0.000000
0.000000
0.000000
0.000000
0.000000
0.000000
0.000000
0.000000
0.000000
0.000000
0.000000
0.000000
0.000000
0.000000
0.000000
0.000000
0.000000
0.000000
0.000000
0.000000
0.000000
0.000000
0.000000
0.000000
0.000000
0.000000
0.000000
0.000000
0.000000
0.000000
0.000000
0.000000
0.000000
0.000000
0.000000
0.000000
0.000000
0.000000
0.000000
0.000000
0.000000
0.000000
0.000000
0.000361
0.001556
0.003779
0.007082
0.011389
0.016473
0.022103
0.027976
0.033830
0.039378
0.044430
0.048790
0.052301
0.054881
0.056511
0.057086
0.056511
0.054881
0.052301
0.048790
0.044430
0.039378
0.033830
0.027976
0.022103
0.016473
0.011389
0.007082
0.003779
0.001556
0.000361
0.000000
0.000000
0.000000
0.000000
0.000000
0.000000
0.000000
0.000000
0.000000
0.000000
0.000000
0.000000
0.000000
0.000000
0.000000
0.000000
0.000000
0.000000
0.000000
0.000000
0.000000
0.000000
0.000000
0.000000
0.000000
0.000000
0.000000
0.000000
0.000000
0.000000
0.000000
0.000000
0.000000
0.000000
0.000000
0.000000
0.000000
0.000000
0.000000
0.000000
0.000000
0.000000
0.000000
0.000000
0.000000
0.000000
0.000000
0.000000
0.000000
0.000000
0.000000
0.000000
0.000000
0.000000
0.000000
0.000000
0.000000
0.000000
0.000000
0.000000
0.000000
0.000000
0.000000
0.000000
0.000000
0.000000
0.000000
0.000907
0.003155
0.007094
0.012770
0.020034
0.028550
0.037938
0.047761
0.057569
0.067019
0.075780
0.083670
0.090490
0.096146
0.100582
0.103800
0.105775
0.106415
0.105775
0.103800
0.100582
0.096146
0.090490
0.083670
0.075780
0.067019
0.057569
0.047761
0.037938
0.028550
0.020034
0.012770
0.007094
0.003155
0.000907
0.000000
0.000000
0.000000
0.000000
0.000000
0.000000
0.000000
0.000000
0.000000
0.000000
0.000000
0.000000
0.000000
0.000000
0.000000
0.000000
0.000000
0.000000
0.000000
0.000000
0.000000
0.000000
0.000000
0.000000
0.000000
0.000000
0.000000
0.000000
0.000000
0.000000
0.000000
0.000000
0.000000
0.000000
0.000000
0.000000
0.000000
0.000000
0.000000
0.000000
0.000000
0.000000
0.000000
0.000000
0.000000
0.000000
0.000000
0.000000
0.000000
0.000000
0.000000
0.000000
0.000000
0.000000
0.000000
0.000000
0.000000
0.000000
0.000000
0.000000
0.000000
0.000000
0.000035
0.001240
0.004357
0.009913
0.017946
0.028252
0.040369
0.053698
0.067578
0.081394
0.094635
0.106910
0.117935
0.127588
0.135797
0.142586
0.147991
0.152108
0.155017
0.156703
0.157238
0.156703
0.155017
0.152108
0.147991
0.142586
0.135797
0.127588
0.117935
0.106910
0.094635
0.081394
0.067578
0.053698
0.040369
0.028252
0.017946
0.009913
0.004357
0.001240
0.000035
0.000000
0.000000
0.000000
0.000000
0.000000
0.000000
0.000000
0.000000
0.000000
0.000000
0.000000
0.000000
0.000000
0.000000
0.000000
0.000000
0.000000
0.000000
0.000000
0.000000
0.000000
0.000000
0.000000
0.000000
0.000000
0.000000
0.000000
0.000000
0.000000
0.000000
0.000000
0.000000
0.000000
0.000000
0.000000
0.000000
0.000000
0.000000
0.000000
0.000000
0.000000
0.000000
0.000000
0.000000
0.000000
0.000000
0.000000
0.000000
0.000000
0.000000
0.000000
0.000000
0.000000
0.000000
0.000000
0.000000
0.000000
0.000000
0.001080
0.004524
0.011154
0.021131
0.034186
0.049661
0.066696
0.084378
0.101835
0.118346
0.133387
0.146659
0.158017
0.167526
0.175272
0.181422
0.186188
0.189788
0.192421
0.194172
0.195153
0.195471
0.195153
0.194172
0.192421
0.189788
0.186188
0.181422
0.175272
0.167526
0.158017
0.146659
0.133387
0.118346
0.101835
0.084378
0.066696
0.049661
0.034186
0.021131
0.011154
0.004524
0.001080
0.000000
0.000000
0.000000
0.000000
0.000000
0.000000
0.000000
0.000000
0.000000
0.000000
0.000000
0.000000
0.000000
0.000000
0.000000
0.000000
0.000000
0.000000
0.000000
0.000000
0.000000
0.000000
0.000000
0.000000
0.000000
0.000000
0.000000
0.000000
0.000000
0.000000
0.000000
0.000000
0.000000
0.000000
0.000000
0.000000
0.000000
0.000000
0.000000
0.000000
0.000000
0.000000
0.000000
0.000000
0.000000
0.000000
0.000000
0.000000
0.000000
0.000000
0.000000
0.000000
0.000000
0.000000
0.000000
0.000573
0.003564
0.010331
0.021364
0.036469
0.054788
0.075132
0.096226
0.116881
0.136098
0.153196
0.167804
0.179773
0.189320
0.196711
0.202146
0.206006
0.208893
0.210797
0.212021
0.212715
0.213127
0.213356
0.213433
0.213356
0.213127
0.212715
0.212021
0.210797
0.208893
0.206006
0.202146
0.196711
0.189320
0.179773
0.167804
0.153196
0.136098
0.116881
0.096226
0.075132
0.054788
0.036469
0.021364
0.010331
0.003564
0.000573
0.000000
0.000000
0.000000
0.000000
0.000000
0.000000
0.000000
0.000000
0.000000
0.000000
0.000000
0.000000
0.000000
0.000000
0.000000
0.000000
0.000000
0.000000
0.000000
0.000000
0.000000
0.000000
0.000000
0.000000
0.000000
0.000000
0.000000
0.000000
0.000000
0.000000
0.000000
0.000000
0.000000
0.000000
0.000000
0.000000
0.000000
0.000000
0.000000
0.000000
0.000000
0.000000
0.000000
0.000000
0.000000
0.000000
0.000000
0.000000
0.000000
0.000000
0.000000
0.000054
0.001940
0.007656
0.018478
0.034498
0.054834
0.077955
0.102114
0.125685
0.147326
0.166079
0.181504
0.193532
0.202357
0.208494
0.212481
0.214562
0.216051
0.216413
0.215781
0.215503
0.215560
0.215339
0.215119
0.214993
0.214958
0.214993
0.215119
0.215339
0.215560
0.215503
0.215781
0.216413
0.216051
0.214562
0.212481
0.208494
0.202357
0.193532
0.181504
0.166079
0.147326
0.125685
0.102114
0.077955
0.054834
0.034498
0.018478
0.007656
0.001940
0.000054
0.000000
0.000000
0.000000
0.000000
0.000000
0.000000
0.000000
0.000000
0.000000
0.000000
0.000000
0.000000
0.000000
0.000000
0.000000
0.000000
0.000000
0.000000
0.000000
0.000000
0.000000
0.000000
0.000000
0.000000
0.000000
0.000000
0.000000
0.000000
0.000000
0.000000
0.000000
0.000000
0.000000
0.000000
0.000000
0.000000
0.000000
0.000000
0.000000
0.000000
0.000000
0.000000
0.000000
0.000000
0.000000
0.000000
0.000000
0.000000
0.000529
0.004147
0.013117
0.028401
0.049517
0.074703
0.101636
0.128055
0.152157
0.172673
0.188923
0.200941
0.208913
0.213670
0.216288
0.216275
0.216339
0.215721
0.214688
0.213626
0.212314
0.211319
0.210555
0.209952
0.209537
0.209311
0.209237
0.209311
0.209537
0.209952
0.210555
0.211319
0.212314
0.213626
0.214688
0.215721
0.216339
0.216275
0.216288
0.213670
0.208913
0.200941
0.188923
0.172673
0.152157
0.128055
0.101636
0.074703
0.049517
0.028401
0.013117
0.004147
0.000529
0.000000
0.000000
0.000000
0.000000
0.000000
0.000000
0.000000
0.000000
0.000000
0.000000
0.000000
0.000000
0.000000
0.000000
0.000000
0.000000
0.000000
0.000000
0.000000
0.000000
0.000000
0.000000
0.000000
0.000000
0.000000
0.000000
0.000000
0.000000
0.000000
0.000000
0.000000
0.000000
0.000000
0.000000
0.000000
0.000000
0.000000
0.000000
0.000000
0.000000
0.000000
0.000000
0.000000
0.000000
0.000000
0.000000
0.001281
0.007003
0.019492
0.039330
0.065214
0.094441
0.123889
0.150885
0.173653
0.191294
0.203722
0.211531
0.215554
0.215819
0.216196
0.214954
0.212989
0.210509
0.208101
0.205567
0.203521
0.201602
0.200251
0.199278
0.198551
0.198083
0.197816
0.197716
0.197816
0.198083
0.198551
0.199278
0.200251
0.201602
0.203521
0.205567
0.208101
0.210509
0.212989
0.214954
0.216196
0.215819
0.215554
0.211531
0.203722
0.191294
0.173653
0.150885
0.123889
0.094441
0.065214
0.039330
0.019492
0.007003
0.001281
0.000000
0.000000
0.000000
0.000000
0.000000
0.000000
0.000000
0.000000
0.000000
0.000000
0.000000
0.000000
0.000000
0.000000
0.000000
0.000000
0.000000
0.000000
0.000000
0.000000
0.000000
0.000000
0.000000
0.000000
0.000000
0.000000
0.000000
0.000000
0.000000
0.000000
0.000000
0.000000
0.000000
0.000000
0.000000
0.000000
0.000000
0.000000
0.000000
0.000000
0.000000
0.000000
0.000000
0.000027
0.002247
0.010152
0.026127
0.050306
0.080428
0.112722
0.143311
0.169336
0.189355
0.203133
0.211377
0.215282
0.215734
0.214987
0.212656
0.209566
0.205697
0.201776
0.197981
0.194475
0.191629
0.189191
0.187327
0.185849
0.184650
0.183761
0.183124
0.182711
0.182554
0.182711
0.183124
0.183761
0.184650
0.185849
0.187327
0.189191
0.191629
0.194475
0.197981
0.201776
0.205697
0.209566
0.212656
0.214987
0.215734
0.215282
0.211377
0.203133
0.189355
0.169336
0.143311
0.112722
0.080428
0.050306
0.026127
0.010152
0.002247
0.000027
0.000000
0.000000
0.000000
0.000000
0.000000
0.000000
0.000000
0.000000
0.000000
0.000000
0.000000
0.000000
0.000000
0.000000
0.000000
0.000000
0.000000
0.000000
0.000000
0.000000
0.000000
0.000000
0.000000
0.000000
0.000000
0.000000
0.000000
0.000000
0.000000
0.000000
0.000000
0.000000
0.000000
0.000000
0.000000
0.000000
0.000000
0.000000
0.000000
0.000000
0.000154
0.003215
0.013159
0.032381
0.060468
0.094144
0.128569
0.159196
0.183150
0.199613
0.209421
0.213970
0.214741
0.213786
0.210805
0.206646
0.201806
0.196798
0.191893
0.187315
0.183311
0.179906
0.177090
0.174681
0.172648
0.170758
0.168987
0.167490
0.166314
0.165540
0.165264
0.165540
0.166314
0.167490
0.168987
0.170758
0.172648
0.174681
0.177090
0.179906
0.183311
0.187315
0.191893
0.196798
0.201806
0.206646
0.210805
0.213786
0.214741
0.213970
0.209421
0.199613
0.183150
0.159196
0.128569
0.094144
0.060468
0.032381
0.013159
0.003215
0.000154
0.000000
0.000000
0.000000
0.000000
0.000000
0.000000
0.000000
0.000000
0.000000
0.000000
0.000000
0.000000
0.000000
0.000000
0.000000
0.000000
0.000000
0.000000
0.000000
0.000000
0.000000
0.000000
0.000000
0.000000
0.000000
0.000000
0.000000
0.000000
0.000000
0.000000
0.000000
0.000000
0.000000
0.000000
0.000000
0.000000
0.000000
0.000000
0.000251
0.003999
0.015648
0.037634
0.069071
0.105650
0.141466
0.171344
0.192650
0.205374
0.211628
0.213238
0.212854
0.209966
0.205589
0.200130
0.194198
0.188403
0.183051
0.178278
0.174059
0.170431
0.167311
0.164414
0.161603
0.158747
0.155856
0.153072
0.150631
0.148721
0.147518
0.147111
0.147518
0.148721
0.150631
0.153072
0.155856
0.158747
0.161603
0.164414
0.167311
0.170431
0.174059
0.178278
0.183051
0.188403
0.194198
0.200130
0.205589
0.209966
0.212854
0.213238
0.211628
0.205374
0.192650
0.171344
0.141466
0.105650
0.069071
0.037634
0.015648
0.003999
0.000251
0.000000
0.000000
0.000000
0.000000
0.000000
0.000000
0.000000
0.000000
0.000000
0.000000
0.000000
0.000000
0.000000
0.000000
0.000000
0.000000
0.000000
0.000000
0.000000
0.000000
0.000000
0.000000
0.000000
0.000000
0.000000
0.000000
0.000000
0.000000
0.000000
0.000000
0.000000
0.000000
0.000000
0.000000
0.000000
0.000000
0.000293
0.004430
0.017280
0.041413
0.075553
0.114501
0.151262
0.180139
0.198635
0.207896
0.210511
0.211659
0.209887
0.206085
0.200567
0.194298
0.187991
0.182071
0.176642
0.171773
0.167499
0.163710
0.160221
0.156808
0.153200
0.149281
0.145129
0.141020
0.137273
0.134131
0.131797
0.130392
0.129934
0.130392
0.131797
0.134131
0.137273
0.141020
0.145129
0.149281
0.153200
0.156808
0.160221
0.163710
0.167499
0.171773
0.176642
0.182071
0.187991
0.194298
0.200567
0.206085
0.209887
0.211659
0.210511
0.207896
0.198635
0.180139
0.151262
0.114501
0.075553
0.041413
0.017280
0.004430
0.000293
0.000000
0.000000
0.000000
0.000000
0.000000
0.000000
0.000000
0.000000
0.000000
0.000000
0.000000
0.000000
0.000000
0.000000
0.000000
0.000000
0.000000
0.000000
0.000000
0.000000
0.000000
0.000000
0.000000
0.000000
0.000000
0.000000
0.000000
0.000000
0.000000
0.000000
0.000000
0.000000
0.000000
0.000000
0.000259
0.004433
0.017841
0.043375
0.079568
0.120451
0.158042
0.185986
0.202145
0.208893
0.210071
0.209357
0.206865
0.202595
0.196772
0.190180
0.183694
0.177723
0.172401
0.167555
0.163097
0.158971
0.155000
0.150876
0.146357
0.141389
0.136110
0.130903
0.126200
0.122297
0.119283
0.117205
0.116006
0.115625
0.116006
0.117205
0.119283
0.122297
0.126200
0.130903
0.136110
0.141389
0.146357
0.150876
0.155000
0.158971
0.163097
0.167555
0.172401
0.177723
0.183694
0.190180
0.196772
0.202595
0.206865
0.209357
0.210071
0.208893
0.202145
0.185986
0.158042
0.120451
0.079568
0.043375
0.017841
0.004433
0.000259
0.000000
0.000000
0.000000
0.000000
0.000000
0.000000
0.000000
0.000000
0.000000
0.000000
0.000000
0.000000
0.000000
0.000000
0.000000
0.000000
0.000000
0.000000
0.000000
0.000000
0.000000
0.000000
0.000000
0.000000
0.000000
0.000000
0.000000
0.000000
0.000000
0.000000
0.000000
0.000000
0.000173
0.003998
0.017264
0.043352
0.080904
0.123421
0.161984
0.189512
0.203993
0.208072
0.208977
0.207503
0.204540
0.199925
0.194268
0.187771
0.181149
0.175006
0.169475
0.164397
0.159534
0.154818
0.150086
0.145081
0.139511
0.133379
0.127044
0.121006
0.115776
0.111655
0.108666
0.106635
0.105380
0.104686
0.104467
0.104686
0.105380
0.106635
0.108666
0.111655
0.115776
0.121006
0.127044
0.133379
0.139511
0.145081
0.150086
0.154818
0.159534
0.164397
0.169475
0.175006
0.181149
0.187771
0.194268
0.199925
0.204540
0.207503
0.208977
0.208072
0.203993
0.189512
0.161984
0.123421
0.080904
0.043352
0.017264
0.003998
0.000173
0.000000
0.000000
0.000000
0.000000
0.000000
0.000000
0.000000
0.000000
0.000000
0.000000
0.000000
0.000000
0.000000
0.000000
0.000000
0.000000
0.000000
0.000000
0.000000
0.000000
0.000000
0.000000
0.000000
0.000000
0.000000
0.000000
0.000000
0.000000
0.000000
0.000000
0.000072
0.003216
0.015625
0.041347
0.079493
0.123375
0.163251
0.191165
0.204810
0.207948
0.207780
0.205661
0.202736
0.198572
0.193039
0.186553
0.179717
0.173113
0.166989
0.161262
0.155703
0.150075
0.144285
0.138095
0.131338
0.124022
0.116570
0.109708
0.104049
0.099881
0.097112
0.095418
0.094430
0.093882
0.093571
0.093470
0.093571
0.093882
0.094430
0.095418
0.097112
0.099881
0.104049
0.109708
0.116570
0.124022
0.131338
0.138095
0.144285
0.150075
0.155703
0.161262
0.166989
0.173113
0.179717
0.186553
0.193039
0.198572
0.202736
0.205661
0.207780
0.207948
0.204810
0.191165
0.163251
0.123375
0.079493
0.041347
0.015625
0.003216
0.000072
0.000000
0.000000
0.000000
0.000000
0.000000
0.000000
0.000000
0.000000
0.000000
0.000000
0.000000
0.000000
0.000000
0.000000
0.000000
0.000000
0.000000
0.000000
0.000000
0.000000
0.000000
0.000000
0.000000
0.000000
0.000000
0.000000
0.000000
0.000000
0.000000
0.002256
0.013140
0.037539
0.075408
0.120314
0.161908
0.191164
0.205064
0.207839
0.207054
0.204624
0.201502
0.197808
0.192734
0.186299
0.178843
0.171386
0.164299
0.157568
0.150981
0.144319
0.137317
0.129795
0.121599
0.112930
0.104320
0.096508
0.090182
0.085577
0.082481
0.080435
0.079004
0.077914
0.077086
0.076540
0.076348
0.076540
0.077086
0.077914
0.079004
0.080435
0.082481
0.085577
0.090182
0.096508
0.104320
0.112930
0.121599
0.129795
0.137317
0.144319
0.150981
0.157568
0.164299
0.171386
0.178843
0.186299
0.192734
0.197808
0.201502
0.204624
0.207054
0.207839
0.205064
0.191164
0.161908
0.120314
0.075408
0.037539
0.013140
0.002256
0.000000
0.000000
0.000000
0.000000
0.000000
0.000000
0.000000
0.000000
0.000000
0.000000
0.000000
0.000000
0.000000
0.000000
0.000000
0.000000
0.000000
0.000000
0.000000
0.000000
0.000000
0.000000
0.000000
0.000000
0.000000
0.000000
0.000000
0.000000
0.001303
0.010123
0.032265
0.068857
0.114268
0.157884
0.189489
0.204853
0.207859
0.206800
0.204072
0.201006
0.197567
0.192869
0.186220
0.178253
0.169597
0.161273
0.153310
0.145550
0.137743
0.129594
0.120795
0.111191
0.101015
0.090957
0.081895
0.074427
0.068658
0.064182
0.060402
0.056873
0.053489
0.050399
0.047901
0.046303
0.045750
0.046303
0.047901
0.050399
0.053489
0.056873
0.060402
0.064182
0.068658
0.074427
0.081895
0.090957
0.101015
0.111191
0.120795
0.129594
0.137743
0.145550
0.153310
0.161273
0.169597
0.178253
0.186220
0.192869
0.197567
0.201006
0.204072
0.206800
0.207859
0.204853
0.189489
0.157884
0.114268
0.068857
0.032265
0.010123
0.001303
0.000000
0.000000
0.000000
0.000000
0.000000
0.000000
0.000000
0.000000
0.000000
0.000000
0.000000
0.000000
0.000000
0.000000
0.000000
0.000000
0.000000
0.000000
0.000000
0.000000
0.000000
0.000000
0.000000
0.000000
0.000000
0.000000
0.000535
0.006984
0.026011
0.060216
0.105342
0.151015
0.185912
0.204088
0.208024
0.207126
0.204104
0.200821
0.197598
0.193082
0.186370
0.177532
0.167829
0.158088
0.148937
0.140049
0.131130
0.121895
0.111953
0.101101
0.089492
0.077831
0.067014
0.057670
0.049738
0.042611
0.035548
0.028135
0.020463
0.013054
0.006555
0.001533
-0.001587
-0.002566
-0.001587
0.001533
0.006555
0.013054
0.020463
0.028135
0.035548
0.042611
0.049738
0.057670
0.067014
0.077831
0.089492
0.101101
0.111953
0.121895
0.131130
0.140049
0.148937
0.158088
0.167829
0.177532
0.186370
0.193082
0.197598
0.200821
0.204104
0.207126
0.208024
0.204088
0.185912
0.151015
0.105342
0.060216
0.026011
0.006984
0.000535
0.000000
0.000000
0.000000
0.000000
0.000000
0.000000
0.000000
0.000000
0.000000
0.000000
0.000000
0.000000
0.000000
0.000000
0.000000
0.000000
0.000000
0.000000
0.000000
0.000000
0.000000
0.000000
0.000000
0.000000
0.000123
0.004156
0.019379
0.050055
0.093778
0.141134
0.179966
0.202243
0.208590
0.208026
0.204783
0.201010
0.197586
0.193216
0.186449
0.177110
0.166231
0.155284
0.144901
0.135113
0.125357
0.115132
0.104146
0.092079
0.079077
0.065708
0.052798
0.040844
0.029685
0.018610
0.006882
-0.005756
-0.018934
-0.031815
-0.043419
-0.052970
-0.060009
-0.064249
-0.065543
-0.064249
-0.060009
-0.052970
-0.043419
-0.031815
-0.018934
-0.005756
0.006882
0.018610
0.029685
0.040844
0.052798
0.065708
0.079077
0.092079
0.104146
0.115132
0.125357
0.135113
0.144901
0.155284
0.166231
0.177110
0.186449
0.193216
0.197586
0.201010
0.204783
0.208026
0.208590
0.202243
0.179966
0.141134
0.093778
0.050055
0.019379
0.004156
0.000123
0.000000
0.000000
0.000000
0.000000
0.000000
0.000000
0.000000
0.000000
0.000000
0.000000
0.000000
0.000000
0.000000
0.000000
0.000000
0.000000
0.000000
0.000000
0.000000
0.000000
0.000000
0.000000
0.000000
0.001940
0.013054
0.039094
0.080033
0.128158
0.171122
0.198734
0.208846
0.209211
0.206150
0.201705
0.197610
0.193095
0.186461
0.176937
0.165374
0.153305
0.141853
0.131200
0.120788
0.109943
0.097972
0.084733
0.070192
0.054872
0.039458
0.024308
0.009151
-0.006770
-0.024015
-0.042462
-0.061252
-0.079196
-0.095174
-0.108435
-0.118569
-0.125676
-0.129806
-0.131326
-0.129806
-0.125676
-0.118569
-0.108435
-0.095174
-0.079196
-0.061252
-0.042462
-0.024015
-0.006770
0.009151
0.024308
0.039458
0.054872
0.070192
0.084733
0.097972
0.109943
0.120788
0.131200
0.141853
0.153305
0.165374
0.176937
0.186461
0.193095
0.197610
0.201705
0.206150
0.209211
0.208846
0.198734
0.171122
0.128158
0.080033
0.039094
0.013054
0.001940
0.000000
0.000000
0.000000
0.000000
0.000000
0.000000
0.000000
0.000000
0.000000
0.000000
0.000000
0.000000
0.000000
0.000000
0.000000
0.000000
0.000000
0.000000
0.000000
0.000000
0.000000
0.000000
0.000586
0.007606
0.028215
0.064836
0.112248
0.158850
0.192576
0.208152
0.210395
0.207661
0.202905
0.197878
0.192853
0.186368
0.177125
0.165372
0.152605
0.140226
0.128688
0.117674
0.106225
0.093639
0.079217
0.063106
0.045583
0.027203
0.008312
-0.011408
-0.032505
-0.055270
-0.079043
-0.102382
-0.123646
-0.141656
-0.155894
-0.166480
-0.173984
-0.178791
-0.181523
-0.182451
-0.181523
-0.178791
-0.173984
-0.166480
-0.155894
-0.141656
-0.123646
-0.102382
-0.079043
-0.055270
-0.032505
-0.011408
0.008312
0.027203
0.045583
0.063106
0.079217
0.093639
0.106225
0.117674
0.128688
0.140226
0.152605
0.165372
0.177125
0.186368
0.192853
0.197878
0.202905
0.207661
0.210395
0.208152
0.192576
0.158850
0.112248
0.064836
0.028215
0.007606
0.000586
0.000000
0.000000
0.000000
0.000000
0.000000
0.000000
0.000000
0.000000
0.000000
0.000000
0.000000
0.000000
0.000000
0.000000
0.000000
0.000000
0.000000
0.000000
0.000000
0.000000
0.000055
0.003565
0.018328
0.049168
0.093946
0.142865
0.182991
0.205546
0.211149
0.209967
0.204787
0.198576
0.192695
0.186220
0.177583
0.166265
0.153274
0.140174
0.127835
0.116041
0.104055
0.090741
0.075473
0.057774
0.038018
0.016529
-0.006481
-0.030994
-0.057286
-0.084938
-0.112681
-0.138521
-0.160546
-0.177566
-0.189491
-0.197330
-0.202061
-0.204313
-0.205709
-0.206552
-0.206780
-0.206552
-0.205709
-0.204313
-0.202061
-0.197330
-0.189491
-0.177566
-0.160546
-0.138521
-0.112681
-0.084938
-0.057286
-0.030994
-0.006481
0.016529
0.038018
0.057774
0.075473
0.090741
0.104055
0.116041
0.127835
0.140174
0.153274
0.166265
0.177583
0.186220
0.192695
0.198576
0.204787
0.209967
0.211149
0.205546
0.182991
0.142865
0.093946
0.049168
0.018328
0.003565
0.000055
0.000000
0.000000
0.000000
0.000000
0.000000
0.000000
0.000000
0.000000
0.000000
0.000000
0.000000
0.000000
0.000000
0.000000
0.000000
0.000000
0.000000
0.000000
0.000000
0.001092
0.010261
0.034236
0.074223
0.123358
0.169024
0.199697
0.211509
0.211876
0.207352
0.200239
0.193008
0.186082
0.178110
0.167766
0.155215
0.141733
0.128575
0.115999
0.103268
0.089359
0.073158
0.054199
0.032301
0.007801
-0.019116
-0.048379
-0.079403
-0.111124
-0.141305
-0.167383
-0.187481
-0.200692
-0.207569
-0.211085
-0.209847
-0.209887
-0.208644
-0.207320
-0.206674
-0.206477
-0.206674
-0.207320
-0.208644
-0.209887
-0.209847
-0.211085
-0.207569
-0.200692
-0.187481
-0.167383
-0.141305
-0.111124
-0.079403
-0.048379
-0.019116
0.007801
0.032301
0.054199
0.073158
0.089359
0.103268
0.115999
0.128575
0.141733
0.155215
0.167766
0.178110
0.186082
0.193008
0.200239
0.207352
0.211876
0.211509
0.199697
0.169024
0.123358
0.074223
0.034236
0.010261
0.001092
0.000000
0.000000
0.000000
0.000000
0.000000
0.000000
0.000000
0.000000
0.000000
0.000000
0.000000
0.000000
0.000000
0.000000
0.000000
0.000000
0.000000
0.000000
0.000104
0.004511
0.021206
0.054446
0.101092
0.150423
0.189257
0.209712
0.213345
0.210256
0.202822
0.194276
0.186446
0.178711
0.169513
0.157980
0.144703
0.130910
0.117404
0.103904
0.089308
0.072449
0.052369
0.028741
0.001560
-0.028958
-0.062338
-0.097588
-0.132308
-0.163535
-0.188243
-0.204643
-0.212658
-0.212355
-0.212231
-0.208489
-0.203869
-0.198986
-0.194771
-0.191453
-0.189553
-0.188959
-0.189553
-0.191453
-0.194771
-0.198986
-0.203869
-0.208489
-0.212231
-0.212355
-0.212658
-0.204643
-0.188243
-0.163535
-0.132308
-0.097588
-0.062338
-0.028958
0.001560
0.028741
0.052369
0.072449
0.089308
0.103904
0.117404
0.130910
0.144703
0.157980
0.169513
0.178711
0.186446
0.194276
0.202822
0.210256
0.213345
0.209712
0.189257
0.150423
0.101092
0.054446
0.021206
0.004511
0.000104
0.000000
0.000000
0.000000
0.000000
0.000000
0.000000
0.000000
0.000000
0.000000
0.000000
0.000000
0.000000
0.000000
0.000000
0.000000
0.000000
0.000000
0.001229
0.011062
0.036171
0.077453
0.127525
0.173336
0.203333
0.214251
0.213253
0.206403
0.196895
0.187663
0.179587
0.171313
0.161155
0.148692
0.134759
0.120390
0.105917
0.090622
0.073197
0.052469
0.027621
-0.001652
-0.035162
-0.072228
-0.110899
-0.148047
-0.179345
-0.201213
-0.212980
-0.215156
-0.213445
-0.206575
-0.197820
-0.188199
-0.179378
-0.172004
-0.165988
-0.161882
-0.159540
-0.158794
-0.159540
-0.161882
-0.165988
-0.172004
-0.179378
-0.188199
-0.197820
-0.206575
-0.213445
-0.215156
-0.212980
-0.201213
-0.179345
-0.148047
-0.110899
-0.072228
-0.035162
-0.001652
0.027621
0.052469
0.073197
0.090622
0.105917
0.120390
0.134759
0.148692
0.161155
0.171313
0.179587
0.187663
0.196895
0.206403
0.213253
0.214251
0.203333
0.173336
0.127525
0.077453
0.036171
0.011062
0.001229
0.000000
0.000000
0.000000
0.000000
0.000000
0.000000
0.000000
0.000000
0.000000
0.000000
0.000000
0.000000
0.000000
0.000000
0.000000
0.000000
0.000081
0.004325
0.020942
0.054357
0.101547
0.151688
0.191205
0.211920
0.215376
0.210495
0.200844
0.190195
0.181034
0.173043
0.164270
0.153187
0.139783
0.124973
0.109524
0.093341
0.075408
0.054353
0.029001
-0.001449
-0.037198
-0.077224
-0.119075
-0.158245
-0.189527
-0.209147
-0.216541
-0.215337
-0.208009
-0.195842
-0.181813
-0.168112
-0.156331
-0.146592
-0.139293
-0.133754
-0.130089
-0.127922
-0.127227
-0.127922
-0.130089
-0.133754
-0.139293
-0.146592
-0.156331
-0.168112
-0.181813
-0.195842
-0.208009
-0.215337
-0.216541
-0.209147
-0.189527
-0.158245
-0.119075
-0.077224
-0.037198
-0.001449
0.029001
0.054353
0.075408
0.093341
0.109524
0.124973
0.139783
0.153187
0.164270
0.173043
0.181034
0.190195