# vtk DataFile Version 3.0
Created by write_to_vtk2d
ASCII
DATASET STRUCTURED_POINTS
DIMENSIONS 100 100 1
SPACING 1.000000 1.000000 0.0
ORIGIN 0.000000 0.000000 0.0
POINT_DATA 10000
SCALARS p float 1
LOOKUP_TABLE p_table
0.008106
0.018536
0.063779
0.015643
-0.012091
-0.020227
-0.017959
-0.012383
-0.002506
0.003784
0.004325
0.003385
0.000000
0.000000
0.000000
0.000000
-0.013318
-0.011672
-0.013272
-0.015343
-0.017886
-0.020368
-0.022247
-0.023773
-0.024913
-0.025670
-0.027125
-0.025701
-0.021083
-0.019998
-0.019083
-0.017207
-0.014375
-0.013657
-0.014098
-0.010079
-0.016388
-0.015452
-0.016103
-0.017854
-0.020898
-0.023028
-0.020026
-0.011103
0.001908
0.017113
0.017089
0.008911
0.031615
0.044418
0.054675
0.061615
0.065238
0.065123
0.059015
0.041857
0.016721
-0.007491
-0.022193
-0.025208
-0.020730
-0.011483
-0.003003
0.000829
0.000697
-0.001086
-0.003344
-0.005102
-0.006310
-0.007320
-0.008295
-0.009217
-0.010085
-0.010950
-0.011897
-0.012945
-0.014028
-0.015080
-0.016101
-0.017091
-0.017106
-0.017544
-0.018258
-0.019944
-0.021400
-0.022562
-0.023661
-0.024704
-0.024982
-0.031238
0.000000
0.000000
0.000000
0.000000
0.000113
0.002401
0.009450
0.021742
0.037015
0.051475
0.062111
0.068071
-0.020979
-0.004046
0.001216
0.005715
0.003237
-0.002712
-0.009137
-0.013437
-0.012006
-0.009335
-0.007924
-0.009569
-0.009819
-0.008981
-0.009813
-0.010072
-0.009620
-0.010980
0.000000
0.000000
0.000000
0.000000
-0.019121
-0.016219
-0.016425
-0.016680
-0.017288
-0.016629
-0.016879
-0.015372
-0.014391
-0.013336
-0.015219
-0.016108
-0.015672
-0.013705
-0.004612
0.012550
0.031520
0.051937
0.064166
0.060659
0.069961
0.062146
0.056160
0.046824
0.069993
0.068200
0.058957
0.037596
0.008009
-0.019297
-0.034171
-0.035349
-0.027056
-0.013410
-0.001992
0.002960
0.002585
0.000016
-0.002949
-0.005135
-0.006451
-0.007385
-0.008248
-0.009049
-0.009792
-0.010538
-0.011389
-0.012361
-0.013376
-0.014352
-0.015178
-0.015916
-0.016448
-0.017004
-0.017579
-0.018934
-0.020297
-0.021597
-0.022777
-0.024043
-0.024539
-0.029744
0.000000
0.000000
0.000000
0.000000
0.000080
0.002453
0.010186
0.024020
0.041420
0.057728
0.069111
0.074483
0.074724
0.071859
0.059806
0.035083
-0.000864
0.015018
0.008348
0.002207
-0.001634
-0.004528
-0.008374
-0.010189
-0.014088
-0.016828
-0.019763
-0.020597
-0.019623
-0.018515
-0.017062
-0.015858
-0.015855
-0.014740
-0.010203
-0.008628
-0.007378
-0.006543
-0.006633
-0.006603
-0.006720
-0.003913
0.000000
0.000000
0.000000
0.000000
-0.028074
-0.021080
-0.009178
0.014156
0.041752
0.067634
0.085682
0.089798
0.089559
0.083022
0.069067
0.049832
0.025298
-0.004184
-0.021104
-0.025201
0.001898
-0.028476
-0.044734
-0.045135
-0.034182
-0.016924
-0.002284
0.004284
0.004136
0.001226
-0.002258
-0.004863
-0.006376
-0.007328
-0.008142
-0.008899
-0.009605
-0.010313
-0.011108
-0.011989
-0.012921
-0.013853
-0.014701
-0.015530
-0.016221
-0.016959
-0.017429
-0.018217
-0.019170
-0.020395
-0.021555
-0.022819
-0.023163
-0.028350
0.000000
0.000000
0.000000
0.000000
0.000021
0.002262
0.010288
0.025310
0.044646
0.062990
0.075618
0.080833
0.080417
0.076058
0.061647
0.034238
-0.001944
-0.035426
-0.053770
-0.054514
-0.036536
-0.025665
-0.015194
-0.010901
-0.005302
-0.005193
-0.008613
-0.011901
-0.015309
-0.016593
-0.017095
-0.017295
-0.019135
-0.019275
-0.015701
-0.014618
-0.013402
-0.012500
-0.012137
-0.012978
-0.013040
-0.011738
-0.015655
-0.015213
-0.018853
-0.019597
-0.015474
-0.016500
-0.009867
-0.000561
0.015306
0.034221
0.038217
0.041889
0.000000
0.000000
0.000000
0.000000
0.045685
-0.017271
-0.050818
-0.052342
-0.040381
-0.032531
-0.026441
-0.020864
-0.042218
-0.022031
-0.004119
0.004593
0.005339
0.002653
-0.001196
-0.004233
-0.006094
-0.007217
-0.008074
-0.008839
-0.009528
-0.010196
-0.010905
-0.011645
-0.012394
-0.013135
-0.013835
-0.014656
-0.015697
-0.016540
-0.017360
-0.017793
-0.018345
-0.019474
-0.020682
-0.021890
-0.022319
-0.026987
0.000000
0.000000
0.000000
0.000000
0.000000
0.001890
0.009784
0.025488
0.046595
0.067216
0.081557
0.087189
0.086423
0.080852
0.064617
0.035243
-0.003374
-0.039998
-0.061062
-0.063283
-0.051118
-0.028826
-0.007679
0.004125
-0.009138
-0.019117
-0.024625
-0.025058
-0.021438
-0.017247
-0.013565
-0.011372
-0.011049
-0.011803
-0.012429
-0.013919
-0.014346
-0.014800
-0.016418
-0.017167
-0.017597
-0.017102
-0.016745
-0.017176
-0.020940
-0.020906
-0.016173
-0.015319
-0.000860
0.021470
0.046864
0.072294
0.092877
0.100224
0.102800
0.095841
0.082603
0.061932
0.024204
-0.028467
-0.062825
-0.064700
-0.052108
-0.030974
-0.014752
-0.004590
0.000000
0.000000
0.000000
0.000000
0.006232
0.004131
0.000301
-0.003205
-0.005525
-0.006944
-0.007941
-0.008743
-0.009431
-0.010051
-0.010680
-0.011342
-0.012036
-0.012780
-0.013538
-0.014515
-0.015533
-0.016806
-0.017257
-0.016977
-0.017046
-0.017898
-0.018957
-0.020243
-0.021055
-0.025688
0.000000
0.000000
0.000000
0.000000
0.000000
0.001392
0.008708
0.024550
0.047051
0.070084
0.086768
0.093592
0.092816
0.086328
0.068835
0.038048
-0.002519
-0.042104
-0.066770
-0.071522
-0.060527
-0.037415
-0.013141
0.002327
0.006466
0.005411
0.001907
-0.001784
-0.020069
-0.016281
-0.015906
-0.015815
-0.017437
-0.018412
-0.017016
-0.015675
-0.013873
-0.011870
-0.010285
-0.010241
-0.011452
-0.012005
-0.016896
-0.017284
-0.020869
-0.020099
-0.015878
-0.014967
-0.004971
0.015518
0.041642
0.069491
0.094396
0.105639
0.111702
0.111289
0.109675
0.092556
0.041766
-0.019536
-0.066325
-0.077783
-0.083226
-0.080784
-0.057589
-0.028628
-0.010064
-0.003620
-0.003337
-0.002690
0.000159
0.001361
-0.000286
-0.003441
-0.004544
-0.006381
-0.007650
-0.008568
-0.009238
-0.009757
-0.010293
-0.010857
-0.011471
-0.012125
-0.012739
-0.013537
-0.015107
-0.016455
-0.016955
-0.017256
-0.017309
-0.017491
-0.017888
-0.018744
-0.019288
-0.024445
0.000000
0.000000
0.000000
0.000000
0.000000
0.000863
0.007243
0.022596
0.045979
0.071428
0.091032
0.099770
0.099410
0.092593
0.074303
0.042583
0.000517
-0.041649
-0.070474
-0.077951
-0.069468
-0.047004
-0.020696
-0.001533
0.006081
0.006004
0.003295
-0.000154
-0.003204
-0.005501
-0.007198
-0.008418
-0.008634
-0.009096
-0.010789
-0.014204
0.000000
0.000000
0.000000
0.000000
-0.017160
-0.016745
-0.018228
-0.018439
-0.022640
-0.022294
-0.018792
-0.018867
-0.011747
0.000945
0.023491
0.051448
0.080270
0.099743
0.114658
0.119166
0.122866
0.105716
0.054013
-0.009912
-0.062821
-0.080388
-0.086877
-0.088528
-0.072318
-0.043021
-0.020221
-0.010264
-0.007871
-0.005086
-0.000289
0.001881
0.000152
-0.003553
-0.005328
-0.005167
-0.005972
-0.009041
-0.009231
-0.009780
-0.010244
-0.010742
-0.011303
-0.011906
-0.012471
-0.013102
-0.014301
-0.015152
-0.016244
-0.016520
-0.016542
-0.016726
-0.016934
-0.017570
-0.017997
-0.022977
0.000000
0.000000
0.000000
0.000000
0.000000
0.000407
0.005519
0.019788
0.043384
0.070918
0.093897
0.105645
0.106376
0.099593
0.081086
0.048993
0.006014
-0.038566
-0.071429
-0.082603
-0.077991
-0.057575
-0.030350
-0.007816
0.003714
0.005737
0.004297
0.001532
-0.001443
-0.004059
-0.006209
-0.007844
-0.008943
-0.009628
-0.010107
-0.010546
-0.024847
-0.024950
-0.025225
-0.024635
-0.023902
-0.022169
-0.020785
-0.017974
-0.020240
-0.019164
-0.015244
-0.013853
0.000000
0.000000
0.000000
0.000000
0.086623
0.105965
0.125494
0.135471
0.142660
0.123843
0.072241
0.006144
-0.053159
-0.080274
-0.084289
-0.088298
-0.082280
-0.056239
-0.030443
-0.015976
-0.010855
-0.006889
-0.000984
0.002967
0.000350
-0.004367
-0.007706
-0.009160
-0.009618
-0.010692
-0.011576
-0.010555
-0.009116
-0.008852
-0.011007
-0.011499
-0.011851
-0.012144
-0.013005
-0.014129
-0.015279
-0.015998
-0.016411
-0.016606
-0.016580
-0.016817
-0.016729
-0.021139
0.000000
0.000000
0.000000
0.000000
0.000000
0.000086
0.003750
0.016293
0.039311
0.068501
0.094961
0.110650
0.113139
0.107238
0.089198
0.057266
0.013820
-0.032835
-0.069834
-0.087173
-0.085237
-0.068487
-0.041895
-0.016469
-0.000584
0.004841
0.004561
0.002691
0.000226
-0.002323
-0.004709
-0.006762
-0.008299
-0.009299
-0.009909
-0.010344
-0.010743
-0.011183
-0.011547
-0.011780
-0.017810
-0.017400
-0.018342
-0.017246
-0.019144
-0.020297
-0.018399
-0.016745
-0.012892
-0.003448
0.017986
0.048328
0.081739
0.106084
0.123590
0.117861
0.099046
0.070717
0.051649
0.039551
0.000000
0.000000
0.000000
0.000000
-0.081572
-0.064831
-0.040058
-0.023149
-0.015963
-0.010971
-0.004178
0.001892
-0.000282
-0.005337
-0.010109
-0.013011
-0.013727
-0.013293
-0.013177
-0.011993
-0.009816
-0.007521
-0.006546
-0.006338
-0.006466
-0.006187
-0.012358
-0.013024
-0.014092
-0.014960
-0.015608
-0.015836
-0.015967
-0.016370
-0.015975
-0.019860
0.000000
0.000000
0.000000
0.000000
0.000000
0.000000
0.002159
0.012447
0.033993
0.063919
0.093801
0.114087
0.119649
0.115448
0.098596
0.067355
0.023941
-0.024381
-0.065639
-0.087966
-0.090925
-0.078888
-0.054053
-0.027126
-0.007254
0.002259
0.004002
0.003171
0.001475
-0.000609
-0.002920
-0.005249
-0.007287
-0.008769
-0.009649
-0.010134
-0.010480
-0.010851
-0.011203
-0.011454
-0.011861
-0.012302
-0.012967
-0.013744
-0.019667
-0.019337
-0.019216
-0.018491
-0.015556
-0.008558
0.009657
0.040110
0.077068
0.108963
0.134600
0.137530
0.142289
0.139104
0.101287
0.035607
-0.033589
-0.081569
-0.090720
-0.089280
-0.082151
-0.064473
-0.042334
-0.021589
-0.008389
-0.001944
0.000596
0.000211
0.000000
0.000000
0.000000
0.000000
-0.018110
-0.018565
-0.017713
-0.015274
-0.012076
-0.010316
-0.009405
-0.009028
-0.008331
-0.007935
-0.007745
-0.007393
-0.006889
-0.006526
-0.014485
-0.014933
-0.015177
-0.015428
-0.015676
-0.019308
0.000000
0.000000
0.000000
0.000000
0.000000
0.000000
0.000942
0.008609
0.027701
0.057397
0.090167
0.115412
0.126224
0.123664
0.109032
0.079268
0.036302
-0.013270
-0.058344
-0.087250
-0.094424
-0.087370
-0.066398
-0.039496
-0.016481
-0.002667
0.002455
0.002893
0.002106
0.000771
-0.001043
-0.003319
-0.005717
-0.007764
-0.009116
-0.009804
-0.010177
-0.010479
-0.010766
-0.011035
-0.011412
-0.011786
-0.012428
-0.012866
-0.013532
-0.014057
-0.014525
-0.014985
-0.023162
-0.016325
-0.001284
0.027238
0.066041
0.104116
0.136884
0.146604
0.159740
0.163132
0.128633
0.065251
-0.006285
-0.065301
-0.087552
-0.086703
-0.088360
-0.087887
-0.072081
-0.047709
-0.029234
-0.017553
-0.007172
0.002853
0.006786
0.002006
-0.004185
-0.006658
-0.006049
-0.005047
-0.009029
-0.012210
-0.011975
-0.009730
-0.007858
-0.007365
0.000000
0.000000
0.000000
0.000000
-0.015984
-0.014442
-0.015653
-0.012825
-0.014880
-0.010983
-0.014597
-0.017798
0.000000
0.000000
0.000000
0.000000
0.000000
0.000000
0.000222
0.005176
0.020969
0.049045
0.083659
0.114096
0.130387
0.131612
0.120155
0.092530
0.050715
0.000605
-0.047761
-0.082425
-0.096805
-0.094060
-0.077951
-0.052807
-0.027940
-0.010256
-0.001250
0.001678
0.001938
0.001492
0.000485
-0.001287
-0.003672
-0.006150
-0.008127
-0.009379
-0.009984
-0.010319
-0.010535
-0.010711
-0.010964
-0.011191
-0.011676
-0.012097
-0.012598
-0.013067
-0.013540
-0.014029
-0.013644
-0.016590
0.000000
0.000000
0.057484
0.098186
0.136882
0.149120
0.158366
0.164658
0.147330
0.089631
0.017104
-0.049245
-0.086604
-0.088652
-0.089056
-0.089603
-0.084876
-0.064228
-0.043782
-0.027932
-0.014594
-0.002533
0.006000
0.003396
-0.002738
-0.008637
-0.013922
-0.017058
-0.018480
-0.017765
-0.015799
-0.013533
-0.012135
-0.011120
-0.010103
-0.008754
-0.007328
-0.006987
-0.006762
-0.007358
-0.007608
-0.005394
-0.008583
-0.010764
-0.012470
-0.013342
0.000000
0.000000
0.000000
0.000000
0.000000
0.000000
0.000000
0.002505
0.014400
0.039416
0.074375
0.109209
0.132686
0.138002
0.131101
0.107053
0.067290
0.017353
-0.033512
-0.074139
-0.095375
-0.098269
-0.088083
-0.066332
-0.041248
-0.020478
-0.007434
-0.001212
0.000995
0.001467
0.001261
0.000369
-0.001427
-0.003817
-0.006165
-0.008026
-0.009143
-0.009782
-0.010165
-0.010411
-0.010672
-0.010850
-0.011224
-0.011496
-0.011882
-0.012235
-0.012624
-0.013081
-0.012710
-0.015397
0.000000
0.000000
0.000000
0.000000
0.000000
0.000000
0.000000
0.000000
0.170357
0.116273
0.044783
-0.027112
-0.080144
-0.092601
-0.090801
-0.091757
-0.091488
-0.080538
-0.059779
-0.040955
-0.024899
-0.010242
0.001720
0.005577
-0.000363
-0.006785
-0.012006
-0.016307
-0.018014
-0.017101
-0.015082
-0.013502
-0.011868
-0.010773
-0.009714
-0.008513
-0.007276
-0.007223
-0.006181
-0.006281
-0.008202
-0.007453
-0.010661
-0.012106
-0.013417
-0.013894
-0.014809
-0.014803
-0.014325
-0.015591
-0.013626
-0.008760
0.000000
0.000805
0.008643
0.029283
0.062633
0.100671
0.130996
0.144766
0.141646
0.122407
0.085791
0.036746
-0.015981
-0.061886
-0.091301
-0.099347
-0.095747
-0.079086
-0.055554
-0.032839
-0.016027
-0.006156
-0.001393
0.000573
0.001144
0.000973
0.000022
-0.001780
-0.004006
-0.006174
-0.007777
-0.008781
-0.009405
-0.009775
-0.010089
-0.010285
-0.010625
-0.010831
-0.011160
-0.011364
-0.011675
-0.012091
-0.011767
-0.014187
0.000000
0.000000
0.000000
0.000000
0.000000
0.000000
0.000000
0.000029
0.004203
0.019612
0.067419
-0.012249
-0.059192
-0.080576
-0.072790
-0.055575
0.000000
0.000000
0.000000
0.000000
-0.037558
-0.011607
0.001268
0.009429
0.004418
-0.003212
-0.010150
-0.015249
-0.017897
-0.017094
-0.013875
-0.012295
-0.011120
-0.010053
-0.009011
-0.007633
-0.005900
-0.004787
-0.003497
-0.002986
-0.005532
-0.005781
-0.009172
-0.010817
-0.011654
-0.012657
-0.013641
-0.013591
-0.013217
-0.014297
-0.013101
-0.009348
0.003377
0.036940
0.073949
0.079963
0.049261
0.088287
0.124860
0.146652
0.150043
0.137489
0.105766
0.058677
0.004751
-0.045659
-0.082494
-0.099888
-0.100573
-0.089994
-0.069977
-0.047025
-0.027284
-0.013696
-0.005793
-0.001669
0.000363
0.001090
0.000924
-0.000035
-0.001756
-0.003922
-0.005951
-0.007539
-0.008553
-0.009126
-0.009510
-0.009706
-0.009991
-0.010121
-0.010355
-0.010561
-0.010795
-0.011100
-0.010808
-0.012962
0.000000
0.000000
0.000000
0.000000
0.000000
0.000000
0.000000
0.000000
0.001411
0.011363
0.035492
0.072721
0.113646
0.144360
-0.058077
-0.075607
-0.085565
-0.091685
-0.083687
-0.064354
-0.044247
-0.027497
-0.009140
0.002659
0.006131
-0.001926
-0.006082
-0.005058
0.000000
0.000000
0.000000
0.000000
-0.012446
-0.011050
-0.010125
-0.008796
-0.006861
-0.005365
-0.003811
-0.003114
-0.005722
-0.006305
-0.009433
-0.010957
-0.011500
-0.011963
-0.012503
-0.014218
-0.016545
-0.018418
-0.019627
-0.018254
-0.008669
0.028292
0.086263
0.125570
0.146828
0.144012
0.130674
0.109826
0.155725
0.150555
0.125924
0.082658
0.028942
-0.024792
-0.068255
-0.094203
-0.100989
-0.097355
-0.082914
-0.062135
-0.041186
-0.024341
-0.012979
-0.006122
-0.002153
0.000020
0.000958
0.000898
0.000026
-0.001619
-0.003646
-0.005613
-0.007104
-0.008011
-0.008576
-0.008878
-0.009213
-0.009366
-0.009555
-0.009692
-0.009871
-0.010155
-0.010033
-0.011396
0.000000
0.000000
0.000000
0.000000
0.000000
0.000000
0.000000
0.000000
0.000152
0.005260
0.022750
0.055358
0.097455
0.136054
0.157801
0.160529
0.144818
0.108021
-0.044658
-0.005090
-0.015245
-0.023002
-0.018185
-0.010078
-0.001408
0.000356
-0.006962
-0.011407
-0.015654
-0.017613
-0.015469
-0.011623
-0.010511
-0.009777
-0.008934
-0.007342
-0.005372
-0.003553
-0.002322
-0.002155
0.000000
0.000000
0.000000
0.000000
-0.010143
-0.010943
-0.013082
-0.016667
-0.019686
-0.021547
-0.022158
-0.020173
-0.009112
0.019766
0.066213
0.108746
0.148236
0.164505
0.159885
0.140152
0.119758
0.093055
0.055237
0.015510
0.056767
0.001186
-0.048391
-0.083515
-0.099872
-0.101183
-0.093120
-0.076831
-0.056694
-0.037668
-0.022881
-0.012755
-0.006285
-0.002311
-0.000048
0.000778
0.000711
-0.000170
-0.001697
-0.003560
-0.005272
-0.006473
-0.007278
-0.007761
-0.008227
-0.008483
-0.008690
-0.008811
-0.008943
-0.009193
-0.009204
-0.009898
0.000000
0.000000
0.000000
0.000000
0.000000
0.000000
0.000000
0.000000
0.000000
0.001623
0.012350
0.038039
0.077596
0.121130
0.153904
0.165526
0.160141
0.133495
0.087630
0.032016
-0.022685
-0.066557
-0.079270
-0.020452
0.009774
0.026000
0.021721
0.005736
-0.006764
-0.013412
-0.019719
-0.018815
-0.015587
-0.013446
-0.011074
-0.008445
-0.005998
-0.003711
-0.002227
-0.000862
-0.001638
-0.001550
-0.004587
-0.007197
-0.007637
-0.008686
-0.009771
-0.010365
-0.010218
-0.010691
-0.010802
-0.013388
0.000000
0.000000
0.000000
0.000000
0.131183
0.161379
0.171097
0.168622
0.159988
0.137140
0.080133
0.014786
-0.037821
-0.068092
-0.076368
-0.057288
-0.092779
-0.100842
-0.099359
-0.089151
-0.072226
-0.053261
-0.036049
-0.022526
-0.012839
-0.006310
-0.002114
0.000078
0.000772
0.000549
-0.000301
-0.001713
-0.003367
-0.004747
-0.005800
-0.006505
-0.007126
-0.007488
-0.007731
-0.007839
-0.007945
-0.008148
-0.008207
-0.008527
0.000000
0.000000
0.000000
0.000000
0.000000
0.000000
0.000000
0.000000
0.000000
0.000123
0.005134
0.022749
0.056232
0.100378
0.141850
0.166483
0.170617
0.155547
0.118592
0.065964
0.008809
-0.041888
-0.078162
-0.096924
-0.100922
-0.096647
-0.045691
-0.035367
-0.021089
-0.007038
0.004908
0.005610
0.003726
0.001334
-0.002534
-0.007181
-0.008000
-0.007000
-0.004806
-0.002546
-0.002273
-0.000572
-0.002271
-0.006075
-0.007394
-0.011771
-0.016988
-0.021663
-0.025286
-0.027623
-0.028509
-0.028228
-0.024803
-0.010612
0.020329
0.060404
0.104251
0.144129
0.165015
0.164586
0.141218
0.111353
0.089857
0.077615
0.000000
0.000000
0.000000
0.000000
-0.077408
-0.061920
-0.051851
-0.045808
-0.085531
-0.069352
-0.051861
-0.035961
-0.023010
-0.013309
-0.006458
-0.002154
0.000077
0.000711
0.000538
-0.000244
-0.001537
-0.002865
-0.004100
-0.005065
-0.005883
-0.006356
-0.006652
-0.006794
-0.006922
-0.007108
-0.007132
-0.007315
0.000000
0.000000
0.000000
0.000000
0.000000
0.000000
0.000000
0.000000
0.000000
0.000000
0.001265
0.011119
0.036027
0.075971
0.121699
0.158421
0.175613
0.171859
0.146210
0.101032
0.045401
-0.009770
-0.055138
-0.084908
-0.097941
-0.099413
-0.094701
-0.083711
-0.068551
-0.052254
-0.025459
-0.038134
-0.031030
-0.021263
-0.008550
-0.000486
0.004038
0.004852
0.005255
0.004390
0.002311
0.001425
-0.001074
-0.005114
-0.008164
-0.013178
-0.017699
-0.021386
-0.024211
-0.026123
-0.026916
-0.026614
-0.025331
-0.019516
0.000152
0.030844
0.076731
0.121151
0.157562
0.174568
0.177003
0.179869
0.171336
0.122222
0.056965
-0.006797
-0.059051
-0.085428
-0.083730
-0.077169
-0.067331
-0.049928
-0.035591
-0.029261
-0.027019
-0.017424
-0.036957
-0.024101
-0.014130
-0.007017
-0.002344
0.000169
0.000896
0.000824
0.000105
-0.000891
-0.002146
-0.003353
-0.004396
-0.005036
-0.005430
-0.005671
-0.005857
-0.006029
-0.005939
-0.006266
0.000000
0.000000
0.000000
0.000000
0.000000
0.000000
0.000000
0.000000
0.000000
0.000000
0.000000
0.003849
0.019444
0.051210
0.095540
0.140315
0.171137
0.179246
0.168366
0.135825
0.085966
0.029178
-0.023205
-0.063345
-0.087929
-0.097867
-0.098409
-0.093756
-0.083719
-0.069859
-0.054368
-0.039419
-0.026484
-0.016086
0.000000
0.000000
0.000000
0.000000
-0.001940
-0.000225
0.000180
0.001218
0.000269
-0.002563
-0.006024
-0.009818
-0.015484
-0.021841
-0.026844
-0.029645
-0.030456
-0.029413
-0.027304
-0.023665
-0.013388
0.004910
0.041608
0.091974
0.136008
0.166266
0.174577
0.176726
0.177272
0.159790
0.107436
0.044996
-0.012316
-0.058545
-0.081831
-0.078807
-0.071154
-0.063855
-0.061371
-0.055398
-0.047384
-0.038878
-0.026382
-0.013791
-0.005351
-0.003050
-0.008079
-0.002543
0.000392
0.001395
0.001431
0.000992
0.000035
-0.001171
-0.002360
-0.003248
-0.003882
-0.004320
-0.004617
-0.004840
-0.004791
-0.005506
0.000000
0.000000
0.000000
0.000000
0.000000
0.000000
0.000000
0.000000
0.000000
0.000000
0.000000
0.000614
0.008032
0.029541
0.067080
0.113781
0.155375
0.178220
0.180638
0.163986
0.124991
0.071976
0.016626
-0.031469
-0.066678
-0.087714
-0.096359
-0.097034
-0.093288
-0.084852
-0.072362
-0.058053
-0.043854
-0.030662
-0.019173
-0.010074
-0.003768
0.000040
-0.001226
-0.008221
-0.011494
-0.009734
-0.006957
-0.004858
-0.001936
-0.000150
0.000000
0.000000
0.000000
0.000000
-0.019135
-0.017885
-0.016179
-0.013154
-0.012139
-0.007238
0.013313
0.054184
0.106326
0.147776
0.172637
0.175795
0.175765
0.173999
0.147536
0.094718
0.037760
-0.012466
-0.054181
-0.076959
-0.074065
-0.066391
-0.058557
-0.055530
-0.053931
-0.051524
-0.044279
-0.034035
-0.024532
-0.016949
-0.011237
-0.011659
-0.014801
-0.014437
0.001743
0.002145
0.001871
0.001118
0.000106
-0.000938
-0.001886
-0.002606
-0.003094
-0.003445
-0.003664
-0.004910
0.000000
0.000000
0.000000
0.000000
0.000000
0.000000
0.000000
0.000000
0.000000
0.000000
0.000000
0.000000
0.001999
0.013589
0.040686
0.082501
0.129328
0.166385
0.183762
0.180902
0.157286
0.114722
0.061763
0.009301
-0.034592
-0.066179
-0.085390
-0.094149
-0.096050
-0.093249
-0.086317
-0.076213
-0.063554
-0.049721
-0.036346
-0.024346
-0.014365
-0.006668
-0.001539
0.001318
0.002253
0.002270
0.002412
-0.001886
-0.006496
-0.009780
-0.011758
-0.011579
-0.010707
-0.011312
-0.013259
-0.014039
-0.012627
-0.008672
-0.005003
-0.001407
0.003533
0.018013
0.000000
0.000000
0.000000
0.000000
0.164544
0.158318
0.159406
0.134852
0.086412
0.035540
-0.009520
-0.047110
-0.070874
-0.068539
-0.060808
-0.054158
-0.050084
-0.045348
-0.040146
-0.040144
-0.036293
-0.031328
-0.026399
-0.023203
-0.020703
-0.019555
-0.019299
-0.018960
-0.014484
-0.013662
0.001891
0.001129
0.000189
-0.000658
-0.001390
-0.002093
-0.002758
-0.004388
0.000000
0.000000
0.000000
0.000000
0.000000
0.000000
0.000000
0.000000
0.000000
0.000000
0.000000
0.000000
0.000041
0.004225
0.020084
0.051879
0.096340
0.142028
0.174238
0.183639
0.178323
0.151928
0.107678
0.056224
0.007264
-0.032871
-0.061951
-0.080670
-0.090666
-0.093917
-0.093013
-0.088507
-0.080379
-0.069448
-0.057112
-0.044358
-0.032099
-0.021101
-0.012226
-0.005732
-0.001476
0.000925
0.001798
0.001847
0.001232
0.000490
-0.006245
-0.008174
-0.014561
-0.019319
-0.020531
-0.017979
-0.013747
-0.009016
-0.006435
-0.005135
-0.001274
0.008185
0.036764
0.083142
0.128662
0.159579
0.169786
0.163906
0.146705
0.121710
0.094261
0.057438
0.025993
0.017619
0.000000
0.000000
0.000000
0.000000
-0.045095
-0.041066
-0.046802
-0.046791
-0.043101
-0.040560
-0.037372
-0.034079
-0.031632
-0.030096
-0.028948
-0.024165
-0.024158
-0.024909
-0.023790
-0.017446
-0.011648
-0.015849
-0.000306
-0.001264
-0.002117
-0.004361
0.000000
0.000000
0.000000
0.000000
0.000000
0.000000
0.000000
0.000000
0.000000
0.000000
0.000000
0.000000
0.000000
0.000507
0.007105
0.026853
0.062253
0.107929
0.151269
0.179027
0.185738
0.175881
0.146720
0.102812
0.054313
0.009481
-0.027076
-0.054428
-0.073358
-0.085199
-0.090662
-0.091488
-0.089059
-0.083676
-0.075554
-0.065222
-0.053688
-0.041866
-0.030830
-0.021178
-0.013284
-0.007445
-0.003661
-0.001497
-0.000474
-0.000263
-0.000670
-0.001548
-0.002577
-0.005197
-0.029197
-0.022422
-0.014857
-0.007359
-0.000912
0.003188
0.006301
0.011696
0.018277
0.042668
0.086765
0.132540
0.159046
0.166102
0.162284
0.157866
0.150085
0.123254
0.082983
0.041231
0.003507
-0.028706
-0.052233
-0.052784
-0.046582
-0.044040
-0.040478
-0.034051
-0.023127
-0.018764
-0.018414
-0.018977
0.000000
0.000000
0.000000
0.000000
-0.028426
-0.027990
-0.026835
-0.027997
-0.032375
-0.032322
-0.027192
-0.019313
-0.012989
-0.008997
0.000000
0.000000
0.000000
0.000000
0.000000
0.000000
0.000000
0.000000
0.000000
0.000000
0.000000
0.000000
0.000000
0.000000
0.001247
0.010307
0.033256
0.071031
0.116722
0.157445
0.181180
0.185610
0.173144
0.143203
0.101376
0.056545
0.015771
-0.017794
-0.043796
-0.063136
-0.076539
-0.084840
-0.088258
-0.087629
-0.085000
-0.079735
-0.072083
-0.062679
-0.052443
-0.042056
-0.032211
-0.023671
-0.016811
-0.011768
-0.008285
-0.006045
-0.004873
-0.004540
-0.004780
-0.006169
0.000000
0.000000
0.000000
0.000000
-0.001676
-0.000645
-0.000333
0.000079
0.000595
0.007655
0.036068
0.081839
0.131515
0.154503
0.159132
0.156042
0.149653
0.141339
0.118588
0.084035
0.047707
0.014355
-0.014083
-0.035476
-0.039846
-0.035195
-0.035510
-0.033678
-0.029281
-0.022817
-0.021485
-0.025022
-0.031160
-0.034480
-0.035772
-0.036388
-0.036841
-0.036731
-0.032907
-0.030662
-0.028926
-0.020871
-0.013009
-0.010052
0.000000
0.000000
0.000000
0.000000
-0.006531
-0.005865
0.000000
0.000000
0.000000
0.000000
0.000000
0.000000
0.000000
0.000000
0.000000
0.000000
0.000000
0.002208
0.013373
0.038652
0.077615
0.122468
0.160668
0.180915
0.183084
0.170836
0.142080
0.103275
0.062552
0.025538
-0.005271
-0.029947
-0.049344
-0.064433
-0.075511
-0.082069
-0.084222
-0.083258
-0.080576
-0.075669
-0.068945
-0.060903
-0.051845
-0.042815
-0.034377
-0.027122
-0.021107
-0.016274
-0.012602
-0.009853
-0.007683
-0.006126
0.000000
0.000000
0.000000
0.000000
0.000000
0.000000
0.000000
0.000000
0.000054
0.005132
0.019735
0.047650
0.087625
0.125954
0.147655
0.152368
0.148762
0.140404
0.132838
0.113349
0.083574
0.051683
0.022172
-0.002798
-0.021350
-0.024878
-0.021286
-0.023641
-0.024390
-0.022366
-0.017770
-0.014859
-0.017369
-0.021675
-0.026060
-0.028965
-0.030278
-0.030446
-0.030865
-0.032001
-0.027959
-0.024318
-0.023587
-0.021653
-0.018158
-0.015611
-0.013997
-0.012961
-0.012540
-0.012704
-0.012162
-0.010161
-0.008674
-0.002145
0.000000
0.000000
0.000000
0.000000
0.000000
0.000000
0.000000
0.000005
0.003188
0.015937
0.042555
0.081651
0.125088
0.160946
0.179346
0.180649
0.168869
0.142864
0.107829
0.071142
0.037857
0.009953
-0.013016
-0.032251
-0.048334
-0.061043
-0.070174
-0.075591
-0.077815
-0.077198
-0.073785
-0.069699
-0.063869
-0.056700
-0.048867
-0.041163
-0.033839
-0.026827
-0.020447
-0.014585
-0.009522
-0.003770
0.000000
0.000000
0.000000
0.000000
0.000000
0.000000
0.000000
0.000000
0.000000
0.000000
0.000000
0.000000
-0.000191
0.000445
0.000000
0.000000
0.000000
0.000000
0.000000
0.000000
0.000000
0.000000
0.000000
0.000000
0.000000
0.000000
0.000000
0.000000
0.000000
0.000000
0.000000
0.000000
0.000000
0.000000
0.000000
0.000000
0.000000
0.000000
0.000000
0.000000
0.000000
0.000000
0.000000
0.000000
0.000000
0.000000
0.000000
0.000000
0.000000
0.000000
0.000000
0.000000
0.000000
0.000000
0.000000
0.000000
0.000000
0.000000
0.000000
0.000000
0.000000
0.000000
0.000130
0.003995
0.017655
0.044606
0.082917
0.124563
0.158590
0.176320
0.178104
0.167527
0.144559
0.113646
0.081556
0.052437
0.027232
0.005854
-0.012389
-0.028177
-0.041713
-0.052444
-0.060175
-0.065137
-0.067445
-0.067098
-0.064504
-0.059768
-0.053585
-0.047263
-0.040076
-0.032164
-0.024072
-0.015782
-0.008639
0.002415
0.000000
0.000000
0.000000
0.000000
0.000000
0.000000
0.000000
0.000000
0.000000
0.000000
0.000000
0.000000
0.000000
0.000000
0.000000
0.000000
0.000000
0.000000
0.000000
0.000000
0.000000
0.000000
0.000000
0.000000
0.000000
0.000000
0.000000
0.000000
0.000000
0.000000
0.000000
0.000000
0.000000
0.000000
0.000000
0.000000
0.000000
0.000000
0.000000
0.000000
0.000000
0.000000
0.000000
0.000000
0.000000
0.000000
0.000000
0.000000
0.000000
0.000000
0.000000
0.000000
0.000000
0.000000
0.000000
0.000000
0.000000
0.000000
0.000000
0.000000
0.000000
0.000000
0.000000
0.000230
0.004462
0.018294
0.044633
0.081373
0.120989
0.153625
0.171526
0.174855
0.165815
0.146279
0.120841
0.093343
0.067450
0.045233
0.026170
0.009345
-0.005559
-0.018378
-0.029217
-0.038141
-0.044883
-0.049105
-0.050696
-0.050134
-0.047780
-0.043350
-0.037155
-0.029785
-0.021590
-0.012237
-0.003237
0.013334
0.000000
0.000000
0.000000
0.000000
0.000000
0.000000
0.000000
0.000000
0.000000
0.000000
0.000000
0.000000
0.000000
0.000000
0.000000
0.000000
0.000000
0.000000
0.000277
0.004503
0.000000
0.000000
0.000000
0.000000
0.000000
0.000000
0.000000
0.000000
0.000000
0.000000
0.000000
0.000000
0.000000
0.000000
0.000000
0.000000
0.000000
0.000000
0.000000
0.000000
0.000000
0.000000
0.000000
0.000000
0.000000
0.000000
0.000000
0.000000
0.000000
0.000000
0.000000
0.000000
0.000000
0.000000
0.000000
0.000000
0.000000
0.000000
0.000000
0.000000
0.000000
0.000000
0.000000
0.000000
0.000000
0.000000
0.017784
0.042651
0.077136
0.114513
0.146038
0.164607
0.169484
0.163639
0.148299
0.127244
0.104410
0.082695
0.062975
0.045826
0.031171
0.018440
0.006991
-0.003252
-0.011872
-0.018538
-0.023240
-0.026047
-0.026682
-0.025273
-0.021848
-0.016488
-0.009397
-0.000383
0.008379
0.027801
0.000000
0.000000
0.000000
0.000000
0.000000
0.000000
0.000000
0.000000
0.000000
0.000000
0.000000
0.000000
0.000000
0.000000
0.000000
0.000000
0.000000
0.000000
0.000000
0.000252
0.004107
0.016200
0.038847
0.070455
0.000000
0.000000
0.000000
0.000000
0.000000
0.000000
0.000000
0.000000
0.000000
0.000000
0.000000
0.000000
0.000000
0.000000
0.000000
0.000000
0.000000
0.000000
0.000000
0.000000
0.000000
0.000000
0.000000
0.000000
0.000000
0.000000
0.000000
0.000000
0.000000
0.000000
0.000000
0.000000
0.000000
0.000000
0.000000
0.000000
0.000000
0.000000
0.000000
0.000000
0.000000
0.000000
0.000000
0.000000
0.000000
0.000000
0.105308
0.135778
0.155647
0.162515
0.158437
0.148368
0.132806
0.114332
0.095466
0.078624
0.064296
0.051902
0.040822
0.030990
0.022551
0.015503
0.009769
0.005498
0.002947
0.002101
0.003075
0.005880
0.010476
0.017236
0.023622
0.042415
0.000000
0.000000
0.000000
0.000000
0.000000
0.000000
0.000000
0.000000
0.000000
0.000000
0.000000
0.000000
0.000000
0.000000
0.000000
0.000000
0.000000
0.000000
0.000000
0.000000
0.000176
0.003358
0.013749
0.033564
0.061734
0.093667
0.122845
0.143641
0.000000
0.000000
0.000000
0.000000
0.000000
0.000000
0.000000
0.000000
0.000000
0.000000
0.000000
0.000000
0.000000
0.000000
0.000000
0.000000
0.000000
0.000000
0.000000
0.000000
0.000000
0.000000
0.000000
0.000000
0.000000
0.000000
0.000000
0.000000
0.000000
0.000000
0.000000
0.000000
0.000000
0.000000
0.000000
0.000000
0.000000
0.000000
0.000000
0.000000
0.000000
0.000000
0.000000
0.000000
0.000000
0.000000
0.152642
0.153657
0.146539
0.134818
0.120404
0.105708
0.092029
0.079710
0.068882
0.059641
0.051773
0.045046
0.039405
0.034952
0.031704
0.029724
0.029037
0.029694
0.031629
0.035138
0.037836
0.053418
0.000000
0.000000
0.000000
0.000000
0.000000
0.000000
0.000000
0.000000
0.000000
0.000000
0.000000
0.000000
0.000000
0.000000
0.000000
0.000000
0.000000
0.000000
0.000000
0.000000
0.000000
0.000079
0.002413
0.010744
0.027297
0.051566
0.080071
0.107525
0.129003
0.141383
0.144494
0.140717
0.000000
0.000000
0.000000
0.000000
0.000000
0.000000
0.000000
0.000000
0.000000
0.000000
0.000000
0.000000
0.000000
0.000000
0.000000
0.000000
0.000000
0.000000
0.000000
0.000000
0.000000
0.000000
0.000000
0.000000
0.000000
0.000000
0.000000
0.000000
0.000000