# vtk DataFile Version 3.0
Created by write_to_vtk2d
ASCII
DATASET STRUCTURED_POINTS
DIMENSIONS 100 100 1
SPACING 1.000000 1.000000 0.0
ORIGIN 0.000000 0.000000 0.0
POINT_DATA 10000
SCALARS p float 1
LOOKUP_TABLE p_table
0.095327
0.074600
0.037553
-0.003100
-0.028516
-0.031608
-0.020328
-0.004921
0.009579
0.016055
0.015688
0.015039
0.000000
0.000000
0.000000
0.000000
-0.000398
-0.001358
-0.001847
-0.002284
-0.002738
-0.003178
-0.003955
-0.004643
-0.004768
-0.004921
-0.004769
-0.004432
-0.004067
-0.003612
-0.004436
-0.005494
-0.005762
-0.004397
-0.002780
0.000170
0.001602
0.004291
0.006924
0.009355
0.011818
0.016227
0.027600
0.039649
0.049683
0.057422
0.053948
0.036126
-0.002986
0.004154
0.054675
0.061615
0.065238
0.065123
0.059015
0.041857
0.016721
-0.007491
-0.022193
-0.025208
-0.020730
-0.011483
-0.003003
0.000829
0.000697
-0.001086
-0.003344
-0.005102
-0.006310
-0.007320
-0.008295
-0.009217
-0.010085
-0.010950
-0.011897
-0.012945
-0.014028
-0.015080
-0.016101
-0.017091
-0.017106
-0.017544
-0.018258
-0.019944
-0.021400
-0.022562
-0.023661
-0.024704
-0.024982
-0.031238
0.000000
0.000000
0.000000
0.000000
0.000113
0.002401
0.009450
0.021742
0.037015
0.051475
0.062111
0.068071
-0.036964
-0.004033
-0.012231
-0.009319
-0.011847
-0.016120
-0.019012
-0.018252
-0.013888
-0.009656
-0.007409
-0.008379
-0.008999
-0.008609
-0.009398
-0.009755
-0.009620
-0.011025
0.000000
0.000000
0.000000
0.000000
-0.020579
-0.018067
-0.018841
-0.019318
-0.019765
-0.018783
-0.018042
-0.016800
-0.016936
-0.016106
-0.015533
-0.017042
-0.016830
-0.011838
-0.000502
0.017966
0.041388
0.064013
0.077356
0.072160
0.072283
0.059738
0.046051
0.033259
0.023160
0.026339
0.058957
0.037596
0.008009
-0.019297
-0.034171
-0.035349
-0.027056
-0.013410
-0.001992
0.002960
0.002585
0.000016
-0.002949
-0.005135
-0.006451
-0.007385
-0.008248
-0.009049
-0.009792
-0.010538
-0.011389
-0.012361
-0.013376
-0.014352
-0.015178
-0.015916
-0.016448
-0.017004
-0.017579
-0.018934
-0.020297
-0.021597
-0.022777
-0.024043
-0.024539
-0.029744
0.000000
0.000000
0.000000
0.000000
0.000080
0.002453
0.010186
0.024020
0.041420
0.057728
0.069111
0.074483
0.074724
0.071859
0.059806
0.035083
0.028391
0.026823
0.009678
0.004569
-0.005435
-0.009052
-0.011657
-0.012424
-0.015072
-0.018993
-0.019781
-0.019246
-0.017734
-0.016359
-0.015014
-0.014365
-0.015182
-0.014541
-0.010244
-0.008730
-0.007485
-0.006661
-0.006748
-0.006673
-0.006750
-0.003942
0.000000
0.000000
0.000000
0.000000
-0.029166
-0.020111
-0.005600
0.018198
0.046047
0.072767
0.091620
0.097362
0.094046
0.085837
0.069103
0.040973
0.011605
-0.020829
-0.037150
-0.032476
-0.015855
-0.014317
-0.044734
-0.045135
-0.034182
-0.016924
-0.002284
0.004284
0.004136
0.001226
-0.002258
-0.004863
-0.006376
-0.007328
-0.008142
-0.008899
-0.009605
-0.010313
-0.011108
-0.011989
-0.012921
-0.013853
-0.014701
-0.015530
-0.016221
-0.016959
-0.017429
-0.018217
-0.019170
-0.020395
-0.021555
-0.022819
-0.023163
-0.028350
0.000000
0.000000
0.000000
0.000000
0.000021
0.002262
0.010288
0.025310
0.044646
0.062990
0.075618
0.080833
0.080417
0.076058
0.061647
0.034238
-0.001944
-0.035426
-0.053770
-0.054514
-0.008194
-0.009027
0.000121
0.005252
0.003994
-0.000561
-0.008363
-0.014590
-0.020151
-0.021306
-0.020752
-0.019992
-0.020248
-0.019332
-0.015150
-0.014112
-0.012538
-0.011700
-0.011488
-0.012438
-0.012766
-0.011884
-0.015965
-0.015460
-0.019026
-0.019664
-0.015474
-0.016489
-0.009835
-0.000528
0.015327
0.034221
0.038211
0.041883
0.000000
0.000000
0.000000
0.000000
0.049815
-0.016164
-0.051504
-0.052776
-0.044734
-0.036116
-0.025996
-0.017861
-0.025284
-0.027435
-0.004119
0.004593
0.005339
0.002653
-0.001196
-0.004233
-0.006094
-0.007217
-0.008074
-0.008839
-0.009528
-0.010196
-0.010905
-0.011645
-0.012394
-0.013135
-0.013835
-0.014656
-0.015697
-0.016540
-0.017360
-0.017793
-0.018345
-0.019474
-0.020682
-0.021890
-0.022319
-0.026987
0.000000
0.000000
0.000000
0.000000
0.000000
0.001890
0.009784
0.025488
0.046595
0.067216
0.081557
0.087189
0.086423
0.080852
0.064617
0.035243
-0.003374
-0.039998
-0.061062
-0.063283
-0.051118
-0.028826
-0.007679
0.004125
-0.001977
-0.009977
-0.020831
-0.019762
-0.015370
-0.011661
-0.009265
-0.009607
-0.011912
-0.014736
-0.016182
-0.017567
-0.017560
-0.018906
-0.019825
-0.019269
-0.018659
-0.017509
-0.016742
-0.017176
-0.020871
-0.020869
-0.016283
-0.015477
-0.000950
0.021613
0.047258
0.072802
0.093386
0.100698
0.103080
0.096072
0.082771
0.061994
0.024461
-0.028232
-0.062981
-0.065006
-0.052618
-0.031187
-0.015029
-0.004584
0.000000
0.000000
0.000000
0.000000
-0.014135
-0.012922
0.000301
-0.003205
-0.005525
-0.006944
-0.007941
-0.008743
-0.009431
-0.010051
-0.010680
-0.011342
-0.012036
-0.012780
-0.013538
-0.014515
-0.015533
-0.016806
-0.017257
-0.016977
-0.017046
-0.017898
-0.018957
-0.020243
-0.021055
-0.025688
0.000000
0.000000
0.000000
0.000000
0.000000
0.001392
0.008708
0.024550
0.047051
0.070084
0.086768
0.093592
0.092816
0.086328
0.068835
0.038048
-0.002519
-0.042104
-0.066770
-0.071522
-0.060527
-0.037415
-0.013141
0.002327
0.006466
0.005411
0.001907
-0.001784
-0.014085
-0.012404
-0.016465
-0.013347
-0.014740
-0.015347
-0.013833
-0.012838
-0.012000
-0.011533
-0.010846
-0.011154
-0.012744
-0.013841
-0.016896
-0.017284
-0.021284
-0.020099
-0.015398
-0.014361
-0.004197
0.016140
0.042044
0.069672
0.094451
0.106078
0.112853
0.114579
0.114049
0.094759
0.042961
-0.018623
-0.065978
-0.077798
-0.084275
-0.081707
-0.058074
-0.028949
-0.010081
-0.004511
-0.004912
-0.004659
-0.001986
-0.000666
-0.002369
-0.004061
-0.003501
-0.003390
-0.007650
-0.008568
-0.009238
-0.009757
-0.010293
-0.010857
-0.011471
-0.012125
-0.012739
-0.013537
-0.015107
-0.016455
-0.016955
-0.017256
-0.017309
-0.017491
-0.017888
-0.018744
-0.019288
-0.024445
0.000000
0.000000
0.000000
0.000000
0.000000
0.000863
0.007243
0.022596
0.045979
0.071428
0.091032
0.099770
0.099410
0.092593
0.074303
0.042583
0.000517
-0.041649
-0.070474
-0.077951
-0.069468
-0.047004
-0.020696
-0.001533
0.006081
0.006004
0.003295
-0.000154
-0.003204
-0.005501
-0.007198
-0.008418
-0.011866
-0.010285
-0.009640
-0.011721
0.000000
0.000000
0.000000
0.000000
-0.016727
-0.016334
-0.018228
-0.018439
-0.022974
-0.022294
-0.019533
-0.019430
-0.011684
0.000949
0.023624
0.051615
0.080255
0.099908
0.115021
0.120486
0.124500
0.106441
0.054507
-0.009443
-0.062444
-0.080517
-0.088234
-0.090666
-0.073511
-0.044048
-0.021559
-0.011942
-0.009755
-0.006821
-0.001466
-0.000308
-0.004487
-0.007968
-0.010025
-0.011385
-0.012569
-0.014385
-0.020674
-0.018655
-0.010244
-0.010742
-0.011303
-0.011906
-0.012471
-0.013102
-0.014301
-0.015152
-0.016244
-0.016520
-0.016542
-0.016726
-0.016934
-0.017570
-0.017997
-0.022977
0.000000
0.000000
0.000000
0.000000
0.000000
0.000407
0.005519
0.019788
0.043384
0.070918
0.093897
0.105645
0.106376
0.099593
0.081086
0.048993
0.006014
-0.038566
-0.071429
-0.082603
-0.077991
-0.057575
-0.030350
-0.007816
0.003714
0.005737
0.004297
0.001532
-0.001443
-0.004059
-0.006209
-0.007844
-0.008943
-0.009628
-0.010107
-0.010546
-0.022181
-0.020740
-0.024348
-0.022969
-0.021074
-0.018419
-0.016797
-0.016048
-0.017873
-0.017333
-0.014324
-0.013853
0.000000
0.000000
0.000000
0.000000
0.086713
0.106014
0.125511
0.135555
0.142791
0.123960
0.072395
0.006336
-0.053011
-0.080318
-0.084864
-0.089370
-0.082833
-0.056366
-0.030672
-0.016605
-0.011755
-0.007850
-0.001944
0.002344
-0.001800
-0.006790
-0.010131
-0.012261
-0.012832
-0.012639
-0.012595
-0.011266
-0.009225
-0.009788
-0.018831
-0.017029
-0.011851
-0.012144
-0.013005
-0.014129
-0.015279
-0.015998
-0.016411
-0.016606
-0.016580
-0.016817
-0.016729
-0.021139
0.000000
0.000000
0.000000
0.000000
0.000000
0.000086
0.003750
0.016293
0.039311
0.068501
0.094961
0.110650
0.113139
0.107238
0.089198
0.057266
0.013820
-0.032835
-0.069834
-0.087173
-0.085237
-0.068487
-0.041895
-0.016469
-0.000584
0.004841
0.004561
0.002691
0.000226
-0.002323
-0.004709
-0.006762
-0.008299
-0.009299
-0.009909
-0.010344
-0.010743
-0.011183
-0.011547
-0.011780
-0.020379
-0.019498
-0.020512
-0.018535
-0.019144
-0.020107
-0.017700
-0.016288
-0.011908
-0.002644
0.018490
0.048649
0.082134
0.106668
0.124245
0.117977
0.098715
0.070172
0.050919
0.039046
0.000000
0.000000
0.000000
0.000000
-0.082177
-0.065027
-0.040134
-0.023221
-0.016051
-0.011102
-0.004330
0.001445
-0.001041
-0.006162
-0.010841
-0.014047
-0.015976
-0.016439
-0.015198
-0.012796
-0.010380
-0.009276
-0.008638
-0.008776
-0.008775
-0.010804
-0.017990
-0.016714
-0.014092
-0.014960
-0.015608
-0.015836
-0.015967
-0.016370
-0.015975
-0.019860
0.000000
0.000000
0.000000
0.000000
0.000000
0.000000
0.002159
0.012447
0.033993
0.063919
0.093801
0.114087
0.119649
0.115448
0.098596
0.067355
0.023941
-0.024381
-0.065639
-0.087966
-0.090925
-0.078888
-0.054053
-0.027126
-0.007254
0.002259
0.004002
0.003171
0.001475
-0.000609
-0.002920
-0.005249
-0.007287
-0.008769
-0.009649
-0.010134
-0.010480
-0.010851
-0.011203
-0.011454
-0.011861
-0.012302
-0.012967
-0.013744
-0.019295
-0.017305
-0.018641
-0.018595
-0.015556
-0.008827
0.009441
0.040174
0.076639
0.108980
0.135414
0.139335
0.145144
0.141933
0.102408
0.036368
-0.033121
-0.081505
-0.090765
-0.089394
-0.082541
-0.065091
-0.042780
-0.021916
-0.008574
-0.002002
0.000617
0.000304
0.000000
0.000000
0.000000
0.000000
-0.017813
-0.018392
-0.017813
-0.016459
-0.014325
-0.013397
-0.014099
-0.014300
-0.011444
-0.010552
-0.009967
-0.011628
-0.011643
-0.011602
-0.016468
-0.013235
-0.015177
-0.015428
-0.015676
-0.019308
0.000000
0.000000
0.000000
0.000000
0.000000
0.000000
0.000942
0.008609
0.027701
0.057397
0.090167
0.115412
0.126224
0.123664
0.109032
0.079268
0.036302
-0.013270
-0.058344
-0.087250
-0.094424
-0.087370
-0.066398
-0.039496
-0.016481
-0.002667
0.002455
0.002893
0.002106
0.000771
-0.001043
-0.003319
-0.005717
-0.007764
-0.009116
-0.009804
-0.010177
-0.010479
-0.010766
-0.011035
-0.011412
-0.011786
-0.012428
-0.012866
-0.013532
-0.014057
-0.014525
-0.014985
-0.016511
-0.006945
0.002159
0.028162
0.067239
0.105254
0.137480
0.146365
0.157839
0.161107
0.127811
0.064514
-0.007044
-0.065986
-0.087947
-0.087600
-0.089602
-0.089301
-0.072840
-0.048417
-0.029871
-0.018038
-0.007568
0.002528
0.006680
0.001916
-0.004233
-0.006700
-0.006070
-0.004940
-0.008814
-0.012018
-0.011806
-0.009654
-0.007796
-0.007365
0.000000
0.000000
0.000000
0.000000
-0.010887
-0.009162
-0.010488
-0.008078
-0.008781
-0.001707
0.023193
0.041797
0.000000
0.000000
0.000000
0.000000
0.000000
0.000000
0.000222
0.005176
0.020969
0.049045
0.083659
0.114096
0.130387
0.131612
0.120155
0.092530
0.050715
0.000605
-0.047761
-0.082425
-0.096805
-0.094060
-0.077951
-0.052807
-0.027940
-0.010256
-0.001250
0.001678
0.001938
0.001492
0.000485
-0.001287
-0.003672
-0.006150
-0.008127
-0.009379
-0.009984
-0.010319
-0.010535
-0.010711
-0.010964
-0.011191
-0.011676
-0.012097
-0.012598
-0.013067
-0.013540
-0.014029
-0.013644
-0.016590
0.000000
0.000000
0.055330
0.082452
0.138697
0.150099
0.157696
0.162041
0.145013
0.087799
0.014608
-0.051890
-0.087862
-0.090942
-0.092268
-0.093255
-0.087515
-0.065845
-0.044877
-0.028936
-0.015567
-0.003319
0.005504
0.003298
-0.002818
-0.008726
-0.013887
-0.016968
-0.018356
-0.017562
-0.015582
-0.013310
-0.012034
-0.011212
-0.010196
-0.008940
-0.007504
-0.007171
-0.007252
-0.007631
-0.008914
-0.006283
-0.009249
-0.010986
-0.012675
-0.013622
0.000000
0.000000
0.000000
0.000000
0.000000
0.000000
0.000000
0.002505
0.014400
0.039416
0.074375
0.109209
0.132686
0.138002
0.131101
0.107053
0.067290
0.017353
-0.033512
-0.074139
-0.095375
-0.098269
-0.088083
-0.066332
-0.041248
-0.020478
-0.007434
-0.001212
0.000995
0.001467
0.001261
0.000369
-0.001427
-0.003817
-0.006165
-0.008026
-0.009143
-0.009782
-0.010165
-0.010411
-0.010672
-0.010850
-0.011224
-0.011496
-0.011882
-0.012235
-0.012624
-0.013081
-0.012710
-0.015397
0.000000
0.000000
0.000000
0.000000
0.000000
0.000000
0.000000
0.000000
0.170390
0.116283
0.044783
-0.027124
-0.080147
-0.092509
-0.090600
-0.091253
-0.091551
-0.080598
-0.059794
-0.040897
-0.024840
-0.010168
0.001854
0.005906
-0.000132
-0.006785
-0.011948
-0.016079
-0.017493
-0.016292
-0.014408
-0.012943
-0.011591
-0.010099
-0.009059
-0.007976
-0.006968
-0.007131
-0.006216
-0.006420
-0.008282
-0.007483
-0.010661
-0.012327
-0.012776
-0.011354
-0.014809
-0.013303
-0.007384
0.000983
0.013723
0.013378
0.054868
0.035002
0.008643
0.029283
0.062633
0.100671
0.130996
0.144766
0.141646
0.122407
0.085791
0.036746
-0.015981
-0.061886
-0.091301
-0.099347
-0.095747
-0.079086
-0.055554
-0.032839
-0.016027
-0.006156
-0.001393
0.000573
0.001144
0.000973
0.000022
-0.001780
-0.004006
-0.006174
-0.007777
-0.008781
-0.009405
-0.009775
-0.010089
-0.010285
-0.010625
-0.010831
-0.011160
-0.011364
-0.011675
-0.012091
-0.011767
-0.014187
0.000000
0.000000
0.000000
0.000000
0.000000
0.000000
0.000000
0.000029
0.004203
0.019612
-0.002727
-0.060728
-0.070979
-0.089822
-0.076663
-0.058157
0.000000
0.000000
0.000000
0.000000
-0.037570
-0.011633
0.001235
0.009415
0.004431
-0.003221
-0.010166
-0.015302
-0.017871
-0.017029
-0.013731
-0.012121
-0.010928
-0.009909
-0.008992
-0.007819
-0.006379
-0.005695
-0.004643
-0.004582
-0.006374
-0.006456
-0.009172
-0.011157
-0.012314
-0.012958
-0.013641
-0.013591
-0.011759
-0.009296
-0.009448
0.003095
0.028334
0.060217
0.085340
0.065180
-0.020408
-0.055875
0.124860
0.146652
0.150043
0.137489
0.105766
0.058677
0.004751
-0.045659
-0.082494
-0.099888
-0.100573
-0.089994
-0.069977
-0.047025
-0.027284
-0.013696
-0.005793
-0.001669
0.000363
0.001090
0.000924
-0.000035
-0.001756
-0.003922
-0.005951
-0.007539
-0.008553
-0.009126
-0.009510
-0.009706
-0.009991
-0.010121
-0.010355
-0.010561
-0.010795
-0.011100
-0.010808
-0.012962
0.000000
0.000000
0.000000
0.000000
0.000000
0.000000
0.000000
0.000000
0.001411
0.011363
0.035492
0.072721
0.113646
0.144360
-0.077659
-0.075558
-0.123640
-0.119458
-0.101434
-0.074634
-0.048143
-0.026991
-0.003455
0.008432
0.007524
0.000196
-0.005555
-0.003353
0.000000
0.000000
0.000000
0.000000
-0.012427
-0.010886
-0.009897
-0.008591
-0.006771
-0.005500
-0.004389
-0.004246
-0.006702
-0.007194
-0.010101
-0.011339
-0.011975
-0.012656
-0.012897
-0.012990
-0.013269
-0.013265
-0.012428
-0.009431
0.005662
0.038654
0.092690
0.130996
0.151338
0.143689
0.114241
0.068319
-0.002694
-0.012298
0.125924
0.082658
0.028942
-0.024792
-0.068255
-0.094203
-0.100989
-0.097355
-0.082914
-0.062135
-0.041186
-0.024341
-0.012979
-0.006122
-0.002153
0.000020
0.000958
0.000898
0.000026
-0.001619
-0.003646
-0.005613
-0.007104
-0.008011
-0.008576
-0.008878
-0.009213
-0.009366
-0.009555
-0.009692
-0.009871
-0.010155
-0.010033
-0.011396
0.000000
0.000000
0.000000
0.000000
0.000000
0.000000
0.000000
0.000000
0.000152
0.005260
0.022750
0.055358
0.097455
0.136054
0.157801
0.160529
0.144818
0.108021
-0.007849
0.021793
-0.025855
-0.019207
-0.024547
-0.018085
-0.008983
-0.001520
-0.006159
-0.011186
-0.013221
-0.014822
-0.012898
-0.009873
-0.009730
-0.009772
-0.009711
-0.008175
-0.005819
-0.003948
-0.002588
-0.002313
0.000000
0.000000
0.000000
0.000000
-0.010470
-0.011521
-0.014906
-0.017836
-0.019516
-0.019582
-0.019084
-0.016390
-0.004392
0.022229
0.066581
0.109354
0.149026
0.168008
0.164643
0.141189
0.097920
0.052113
0.013329
-0.014284
-0.034946
-0.015512
-0.048391
-0.083515
-0.099872
-0.101183
-0.093120
-0.076831
-0.056694
-0.037668
-0.022881
-0.012755
-0.006285
-0.002311
-0.000048
0.000778
0.000711
-0.000170
-0.001697
-0.003560
-0.005272
-0.006473
-0.007278
-0.007761
-0.008227
-0.008483
-0.008690
-0.008811
-0.008943
-0.009193
-0.009204
-0.009898
0.000000
0.000000
0.000000
0.000000
0.000000
0.000000
0.000000
0.000000
0.000000
0.001623
0.012350
0.038039
0.077596
0.121130
0.153904
0.165526
0.160141
0.133495
0.087630
0.032016
-0.022685
-0.066557
-0.016673
0.013285
0.028540
0.035301
0.020952
0.001589
-0.012983
-0.018305
-0.027782
-0.025927
-0.018160
-0.014394
-0.010237
-0.007128
-0.004858
-0.002938
-0.001941
-0.000878
-0.002003
-0.001670
-0.004803
-0.007340
-0.007724
-0.008688
-0.009701
-0.010365
-0.010218
-0.010652
-0.010766
-0.013350
0.000000
0.000000
0.000000
0.000000
0.132192
0.162372
0.172825
0.173008
0.166044
0.135552
0.074355
0.005277
-0.052951
-0.086827
-0.084336
-0.061458
-0.034921
-0.019468
-0.099359
-0.089151
-0.072226
-0.053261
-0.036049
-0.022526
-0.012839
-0.006310
-0.002114
0.000078
0.000772
0.000549
-0.000301
-0.001713
-0.003367
-0.004747
-0.005800
-0.006505
-0.007126
-0.007488
-0.007731
-0.007839
-0.007945
-0.008148
-0.008207
-0.008527
0.000000
0.000000
0.000000
0.000000
0.000000
0.000000
0.000000
0.000000
0.000000
0.000123
0.005134
0.022749
0.056232
0.100378
0.141850
0.166483
0.170617
0.155547
0.118592
0.065964
0.008809
-0.041888
-0.078162
-0.096924
-0.100922
-0.096647
-0.020268
-0.017291
0.001499
0.009849
0.011482
0.006196
-0.001105
-0.007814
-0.012596
-0.013326
-0.012033
-0.010247
-0.006203
-0.002837
-0.001887
-0.000347
-0.001798
-0.005230
-0.007039
-0.011684
-0.017183
-0.021945
-0.025543
-0.027819
-0.028608
-0.028250
-0.024710
-0.010452
0.020518
0.060395
0.104224
0.144049
0.164950
0.164563
0.141230
0.111403
0.089855
0.077311
0.000000
0.000000
0.000000
0.000000
-0.084057
-0.066394
-0.048956
-0.035748
-0.028474
-0.015504
-0.051861
-0.035961
-0.023010
-0.013309
-0.006458
-0.002154
0.000077
0.000711
0.000538
-0.000244
-0.001537
-0.002865
-0.004100
-0.005065
-0.005883
-0.006356
-0.006652
-0.006794
-0.006922
-0.007108
-0.007132
-0.007315
0.000000
0.000000
0.000000
0.000000
0.000000
0.000000
0.000000
0.000000
0.000000
0.000000
0.001265
0.011119
0.036027
0.075971
0.121699
0.158421
0.175613
0.171859
0.146210
0.101032
0.045401
-0.009770
-0.055138
-0.084908
-0.097941
-0.099413
-0.094701
-0.083711
-0.068551
-0.052254
-0.003127
-0.012790
-0.012127
-0.007500
0.001005
0.003980
0.004257
0.002852
0.001074
-0.000125
-0.002931
-0.001719
-0.003325
-0.006205
-0.008283
-0.011929
-0.015920
-0.019879
-0.022868
-0.024878
-0.026088
-0.026277
-0.025294
-0.019574
0.000044
0.030726
0.076693
0.121162
0.157597
0.174609
0.177073
0.179909
0.171411
0.122214
0.056599
-0.007619
-0.060044
-0.085887
-0.084101
-0.077367
-0.066056
-0.046150
-0.028474
-0.018522
-0.016300
-0.014378
0.000000
0.000000
-0.014130
-0.007017
-0.002344
0.000169
0.000896
0.000824
0.000105
-0.000891
-0.002146
-0.003353
-0.004396
-0.005036
-0.005430
-0.005671
-0.005857
-0.006029
-0.005939
-0.006266
0.000000
0.000000
0.000000
0.000000
0.000000
0.000000
0.000000
0.000000
0.000000
0.000000
0.000000
0.003849
0.019444
0.051210
0.095540
0.140315
0.171137
0.179246
0.168366
0.135825
0.085966
0.029178
-0.023205
-0.063345
-0.087929
-0.097867
-0.098409
-0.093756
-0.083719
-0.069859
-0.054368
-0.039419
-0.026484
-0.016086
0.000000
0.000000
0.000000
0.000000
-0.002219
-0.000836
-0.000530
0.000745
-0.000272
-0.002798
-0.006132
-0.010463
-0.017223
-0.023305
-0.027545
-0.029727
-0.029945
-0.028423
-0.026046
-0.022532
-0.012735
0.005261
0.041767
0.091891
0.135887
0.166145
0.174473
0.176646
0.177266
0.159609
0.107147
0.044834
-0.012322
-0.058474
-0.081915
-0.078929
-0.071113
-0.063631
-0.061365
-0.057244
-0.050402
-0.041520
-0.028965
-0.016928
-0.009486
-0.006319
-0.015245
-0.017863
0.000392
0.001395
0.001431
0.000992
0.000035
-0.001171
-0.002360
-0.003248
-0.003882
-0.004320
-0.004617
-0.004840
-0.004791
-0.005506
0.000000
0.000000
0.000000
0.000000
0.000000
0.000000
0.000000
0.000000
0.000000
0.000000
0.000000
0.000614
0.008032
0.029541
0.067080
0.113781
0.155375
0.178220
0.180638
0.163986
0.124991
0.071976
0.016626
-0.031469
-0.066678
-0.087714
-0.096359
-0.097034
-0.093288
-0.084852
-0.072362
-0.058053
-0.043854
-0.030662
-0.019173
-0.010074
-0.003768
0.000040
-0.002658
-0.011227
-0.011167
-0.004191
0.000255
0.001639
0.002139
0.001372
0.000000
0.000000
0.000000
0.000000
-0.019096
-0.017837
-0.016026
-0.012919
-0.011878
-0.007073
0.013482
0.054358
0.106462
0.147852
0.172664
0.175817
0.175705
0.174015
0.147402
0.094518
0.037469
-0.012767
-0.054392
-0.076917
-0.074037
-0.066398
-0.058612
-0.055201
-0.051126
-0.045580
-0.040671
-0.032059
-0.023558
-0.017155
-0.012593
-0.012674
-0.016672
-0.016611
-0.011389
-0.014205
0.001871
0.001118
0.000106
-0.000938
-0.001886
-0.002606
-0.003094
-0.003445
-0.003664
-0.004910
0.000000
0.000000
0.000000
0.000000
0.000000
0.000000
0.000000
0.000000
0.000000
0.000000
0.000000
0.000000
0.001999
0.013589
0.040686
0.082501
0.129328
0.166385
0.183762
0.180902
0.157286
0.114722
0.061763
0.009301
-0.034592
-0.066179
-0.085390
-0.094149
-0.096050
-0.093249
-0.086317
-0.076213
-0.063554
-0.049721
-0.036346
-0.024346
-0.014365
-0.006668
-0.001539
0.001318
0.002253
0.002270
-0.011948
-0.017455
-0.013389
-0.011314
-0.009807
-0.007464
-0.007285
-0.008716
-0.010365
-0.012938
-0.014877
-0.013801
-0.011050
-0.007020
0.000347
0.016689
0.000000
0.000000
0.000000
0.000000
0.164542
0.158315
0.159400
0.134838
0.086369
0.035470
-0.009703
-0.047453
-0.070871
-0.068501
-0.060825
-0.054174
-0.049998
-0.044941
-0.039117
-0.038914
-0.034552
-0.029653
-0.024910
-0.021909
-0.020179
-0.019555
-0.019562
-0.020269
-0.020308
-0.015863
-0.010540
-0.013903
0.000189
-0.000658
-0.001390
-0.002093
-0.002758
-0.004388
0.000000
0.000000
0.000000
0.000000
0.000000
0.000000
0.000000
0.000000
0.000000
0.000000
0.000000
0.000000
0.000041
0.004225
0.020084
0.051879
0.096340
0.142028
0.174238
0.183639
0.178323
0.151928
0.107678
0.056224
0.007264
-0.032871
-0.061951
-0.080670
-0.090666
-0.093917
-0.093013
-0.088507
-0.080379
-0.069448
-0.057112
-0.044358
-0.032099
-0.021101
-0.012226
-0.005732
-0.001476
0.000925
0.001798
0.001847
0.001232
0.000490
-0.017081
-0.020768
-0.020964
-0.024364
-0.021422
-0.015232
-0.009702
-0.005499
-0.003784
-0.003949
-0.001592
0.007061
0.035081
0.081554
0.128035
0.159261
0.169958
0.163740
0.146846
0.122117
0.094762
0.057832
0.026296
0.017726
0.000000
0.000000
0.000000
0.000000
-0.045122
-0.041077
-0.046713
-0.046596
-0.042882
-0.040083
-0.036199
-0.032223
-0.029089
-0.027081
-0.026498
-0.024165
-0.023314
-0.023982
-0.024977
-0.024840
-0.021446
-0.020138
-0.017113
-0.013054
-0.002117
-0.004361
0.000000
0.000000
0.000000
0.000000
0.000000
0.000000
0.000000
0.000000
0.000000
0.000000
0.000000
0.000000
0.000000
0.000507
0.007105
0.026853
0.062253
0.107929
0.151269
0.179027
0.185738
0.175881
0.146720
0.102812
0.054313
0.009481
-0.027076
-0.054428
-0.073358
-0.085199
-0.090662
-0.091488
-0.089059
-0.083676
-0.075554
-0.065222
-0.053688
-0.041866
-0.030830
-0.021178
-0.013284
-0.007445
-0.003661
-0.001497
-0.000474
-0.000263
-0.000670
-0.001548
-0.002577
-0.005197
-0.033211
-0.027968
-0.022792
-0.015570
-0.007464
0.000572
0.005259
0.011474
0.018633
0.043516
0.087114
0.132647
0.158831
0.165528
0.161993
0.156485
0.149389
0.123138
0.083086
0.041333
0.003718
-0.028420
-0.052003
-0.052705
-0.046595
-0.044040
-0.040490
-0.034103
-0.023162
-0.018801
-0.018433
-0.018988
0.000000
0.000000
0.000000
0.000000
-0.027967
-0.027990
-0.026835
-0.027613
-0.033006
-0.035089
-0.034798
-0.030848
-0.024565
-0.017571
-0.010325
-0.007595
0.000000
0.000000
0.000000
0.000000
0.000000
0.000000
0.000000
0.000000
0.000000
0.000000
0.000000
0.000000
0.001247
0.010307
0.033256
0.071031
0.116722
0.157445
0.181180
0.185610
0.173144
0.143203
0.101376
0.056545
0.015771
-0.017794
-0.043796
-0.063136
-0.076539
-0.084840
-0.088258
-0.087629
-0.085000
-0.079735
-0.072083
-0.062679
-0.052443
-0.042056
-0.032211
-0.023671
-0.016811
-0.011768
-0.008285
-0.006045
-0.004873
-0.004540
-0.004780
-0.006169
0.000000
0.000000
0.000000
0.000000
-0.019126
-0.012694
-0.014156
-0.011418
-0.004351
0.010176
0.041083
0.086901
0.134877
0.157871
0.160394
0.156873
0.149912
0.141589
0.118724
0.084079
0.047650
0.014278
-0.014114
-0.035447
-0.039725
-0.035046
-0.035471
-0.033604
-0.029208
-0.022784
-0.021515
-0.025058
-0.031214
-0.034465
-0.035600
-0.035973
-0.036218
-0.036385
-0.032907
-0.030662
-0.029279
-0.021757
-0.013212
-0.010433
0.000000
0.000000
0.000000
0.000000
-0.013123
-0.009530
-0.006618
-0.007358
0.000000
0.000000
0.000000
0.000000
0.000000
0.000000
0.000000
0.000000
0.000000
0.002208
0.013373
0.038652
0.077615
0.122468
0.160668
0.180915
0.183084
0.170836
0.142080
0.103275
0.062552
0.025538
-0.005271
-0.029947
-0.049344
-0.064433
-0.075511
-0.082069
-0.084222
-0.083258
-0.080576
-0.075669
-0.068945
-0.060903
-0.051845
-0.042815
-0.034377
-0.027122
-0.021107
-0.016274
-0.012602
-0.009853
-0.007683
-0.006126
0.000000
0.000000
0.000000
0.000000
0.000000
0.000000
0.000000
0.000000
-0.010272
-0.003094
0.014385
0.047247
0.090323
0.128306
0.150848
0.155201
0.152042
0.145728
0.136353
0.114798
0.084259
0.051641
0.021657
-0.003480
-0.022058
-0.025422
-0.021617
-0.023691
-0.024401
-0.022370
-0.017756
-0.014861
-0.017378
-0.021690
-0.026072
-0.028983
-0.030303
-0.030472
-0.030879
-0.032014
-0.027955
-0.024291
-0.023584
-0.021748
-0.018681
-0.016724
-0.015513
-0.015547
-0.018182
-0.018636
-0.018780
-0.016616
-0.013303
-0.004946
0.003619
0.010270
0.000000
0.000000
0.000000
0.000000
0.000000
0.000005
0.003188
0.015937
0.042555
0.081651
0.125088
0.160946
0.179346
0.180649
0.168869
0.142864
0.107829
0.071142
0.037857
0.009953
-0.013016
-0.032251
-0.048334
-0.061043
-0.070174
-0.075591
-0.077815
-0.077198
-0.073785
-0.069699
-0.063869
-0.056700
-0.048867
-0.041163
-0.033839
-0.026827
-0.020447
-0.014585
-0.009522
-0.003770
0.000000
0.000000
0.000000
0.000000
0.000000
0.000000
0.000000
0.000000
0.000000
0.000000
0.000000
0.000000
0.007526
0.008892
0.000000
0.000000
0.000000
0.000000
0.000000
0.000000
0.000000
0.000000
0.000000
0.000000
0.000000
0.000000
0.000000
0.000000
0.000000
0.000000
0.000000
0.000000
0.000000
0.000000
0.000000
0.000000
0.000000
0.000000
0.000000
0.000000
0.000000
0.000000
0.000000
0.000000
0.000000
0.000000
0.000000
0.000000
0.000000
0.000000
0.000000
0.000000
0.000000
0.000000
0.000000
0.000000
0.000000
0.000000
0.000000
0.000000
0.000000
0.000000
0.000130
0.003995
0.017655
0.044606
0.082917
0.124563
0.158590
0.176320
0.178104
0.167527
0.144559
0.113646
0.081556
0.052437
0.027232
0.005854
-0.012389
-0.028177
-0.041713
-0.052444
-0.060175
-0.065137
-0.067445
-0.067098
-0.064504
-0.059768
-0.053585
-0.047263
-0.040076
-0.032164
-0.024072
-0.015782
-0.008639
0.002415
0.000000
0.000000
0.000000
0.000000
0.000000
0.000000
0.000000
0.000000
0.000000
0.000000
0.000000
0.000000
0.000000
0.000000
0.000000
0.000000
0.000000
0.000000
0.000000
0.000000
0.000000
0.000000
0.000000
0.000000
0.000000
0.000000
0.000000
0.000000
0.000000
0.000000
0.000000
0.000000
0.000000
0.000000
0.000000
0.000000
0.000000
0.000000
0.000000
0.000000
0.000000
0.000000
0.000000
0.000000
0.000000
0.000000
0.000000
0.000000
0.000000
0.000000
0.000000
0.000000
0.000000
0.000000
0.000000
0.000000
0.000000
0.000000
0.000000
0.000000
0.000000
0.000000
0.000000
0.000000
0.004462
0.018294
0.044633
0.081373
0.120989
0.153625
0.171526
0.174855
0.165815
0.146279
0.120841
0.093343
0.067450
0.045233
0.026170
0.009345
-0.005559
-0.018378
-0.029217
-0.038141
-0.044883
-0.049105
-0.050696
-0.050134
-0.047780
-0.043350
-0.037155
-0.029785
-0.021590
-0.012237
-0.003237
0.013334
0.000000
0.000000
0.000000
0.000000
0.000000
0.000000
0.000000
0.000000
0.000000
0.000000
0.000000
0.000000
0.000000
0.000000
0.000000
0.000000
0.000000
0.000000
0.000277
0.004503
0.000000
0.000000
0.000000
0.000000
0.000000
0.000000
0.000000
0.000000
0.000000
0.000000
0.000000
0.000000
0.000000
0.000000
0.000000
0.000000
0.000000
0.000000
0.000000
0.000000
0.000000
0.000000
0.000000
0.000000
0.000000
0.000000
0.000000
0.000000
0.000000
0.000000
0.000000
0.000000
0.000000
0.000000
0.000000
0.000000
0.000000
0.000000
0.000000
0.000000
0.000000
0.000000
0.000000
0.000000
0.000000
0.000000
0.000000
0.000000
0.077136
0.114513
0.146038
0.164607
0.169484
0.163639
0.148299
0.127244
0.104410
0.082695
0.062975
0.045826
0.031171
0.018440
0.006991
-0.003252
-0.011872
-0.018538
-0.023240
-0.026047
-0.026682
-0.025273
-0.021848
-0.016488
-0.009397
-0.000383
0.008379
0.027801
0.000000
0.000000
0.000000
0.000000
0.000000
0.000000
0.000000
0.000000
0.000000
0.000000
0.000000
0.000000
0.000000
0.000000
0.000000
0.000000
0.000000
0.000000
0.000000
0.000252
0.004107
0.016200
0.038847
0.070455
0.000000
0.000000
0.000000
0.000000
0.000000
0.000000
0.000000
0.000000
0.000000
0.000000
0.000000
0.000000
0.000000
0.000000
0.000000
0.000000
0.000000
0.000000
0.000000
0.000000
0.000000
0.000000
0.000000
0.000000
0.000000
0.000000
0.000000
0.000000
0.000000
0.000000
0.000000
0.000000
0.000000
0.000000
0.000000
0.000000
0.000000
0.000000
0.000000
0.000000
0.000000
0.000000
0.000000
0.000000
0.000000
0.000000
0.000000
0.000000
0.155647
0.162515
0.158437
0.148368
0.132806
0.114332
0.095466
0.078624
0.064296
0.051902
0.040822
0.030990
0.022551
0.015503
0.009769
0.005498
0.002947
0.002101
0.003075
0.005880
0.010476
0.017236
0.023622
0.042415
0.000000
0.000000
0.000000
0.000000
0.000000
0.000000
0.000000
0.000000
0.000000
0.000000
0.000000
0.000000
0.000000
0.000000
0.000000
0.000000
0.000000
0.000000
0.000000
0.000000
0.000176
0.003358
0.013749
0.033564
0.061734
0.093667
0.122845
0.143641
0.000000
0.000000
0.000000
0.000000
0.000000
0.000000
0.000000
0.000000
0.000000
0.000000
0.000000
0.000000
0.000000
0.000000
0.000000
0.000000
0.000000
0.000000
0.000000
0.000000
0.000000
0.000000
0.000000
0.000000
0.000000
0.000000
0.000000
0.000000
0.000000
0.000000
0.000000
0.000000
0.000000
0.000000
0.000000
0.000000
0.000000
0.000000
0.000000
0.000000
0.000000
0.000000
0.000000
0.000000
0.000000
0.000000
0.000000
0.000000
0.146539
0.134818
0.120404
0.105708
0.092029
0.079710
0.068882
0.059641
0.051773
0.045046
0.039405
0.034952
0.031704
0.029724
0.029037
0.029694
0.031629
0.035138
0.037836
0.053418
0.000000
0.000000
0.000000
0.000000
0.000000
0.000000
0.000000
0.000000
0.000000
0.000000
0.000000
0.000000
0.000000
0.000000
0.000000
0.000000
0.000000
0.000000
0.000000
0.000000
0.000000
0.000079
0.002413
0.010744
0.027297
0.051566
0.080071
0.107525
0.129003
0.141383
0.144494
0.140717
0.000000
0.000000
0.000000
0.000000
0.000000
0.000000
0.000000
0.000000
0.000000
0.000000
0.000000
0.000000
0.000000
0.000000
0.000000
0.000000
0.000000
0.000000
0.000000
0.000000
0.000000
0.000000
0.000000
0.000000
0.000000
0.000000
0.000000
0.000000