# vtk DataFile Version 3.0
Created by write_to_vtk2d
ASCII
DATASET STRUCTURED_POINTS
DIMENSIONS 100 100 1
SPACING 1.000000 1.000000 0.0
ORIGIN 0.000000 0.000000 0.0
POINT_DATA 10000
SCALARS p float 1
LOOKUP_TABLE p_table
0.000000
0.000000
0.000215
0.000439
0.007529
0.026169
0.053983
0.080195
0.094870
0.097722
0.092139
0.096084
0.000000
0.000000
0.000000
0.000000
0.002082
-0.063169
-0.071422
-0.068305
-0.049251
-0.035551
-0.033475
-0.038980
-0.045519
-0.051772
-0.056588
-0.052593
-0.041706
-0.036359
-0.033137
-0.025968
-0.020934
-0.016796
-0.016260
-0.006766
-0.012772
-0.012243
-0.014873
-0.020450
-0.025563
-0.032180
-0.038417
-0.046250
-0.058187
-0.067174
-0.077644
-0.079741
0.000000
0.000000
0.000000
0.000000
0.000000
0.000000
0.000000
0.000000
0.000000
0.001141
0.009060
0.026972
0.051729
0.075397
0.091306
0.098736
0.101176
0.100860
0.096347
0.077222
0.035986
-0.017580
-0.060477
-0.073523
-0.066573
-0.044777
-0.023413
-0.012435
-0.011239
-0.014069
-0.018263
-0.022096
-0.025283
-0.027983
-0.030509
-0.033571
-0.036210
-0.038487
-0.040739
-0.043037
-0.043707
-0.055629
0.000000
0.000000
0.000000
0.000000
0.000000
0.000000
0.000000
0.000000
0.000000
0.000000
0.000000
0.000000
0.057512
0.095474
0.117591
0.133313
0.146630
0.154322
0.156502
0.145159
0.095498
0.015771
-0.058643
-0.080697
-0.074264
-0.057694
-0.030266
-0.008756
-0.002233
-0.006749
0.000000
0.000000
0.000000
0.000000
-0.038160
-0.031424
-0.030149
-0.023791
-0.019909
-0.017236
-0.016394
-0.009075
-0.015641
-0.015823
-0.018852
-0.022090
-0.025435
-0.030676
-0.033424
-0.037730
-0.036576
-0.037665
-0.040316
-0.043296
-0.028433
-0.031230
-0.028422
-0.008305
0.000000
0.000000
0.000000
0.000000
0.000000
0.001113
0.009936
0.030497
0.059232
0.086351
0.102911
0.108143
0.107641
0.105185
0.097310
0.071233
0.022511
-0.036438
-0.080233
-0.091666
-0.077645
-0.048531
-0.021765
-0.008887
-0.007611
-0.010535
-0.014800
-0.018835
-0.022096
-0.025303
-0.028424
-0.031592
-0.034214
-0.036547
-0.038631
-0.040826
-0.042366
-0.051618
0.000000
0.000000
0.000000
0.000000
0.000000
0.000000
0.000000
0.000000
0.000000
0.000000
0.000000
0.000000
0.000000
0.000000
0.000000
0.000000
0.202977
0.199151
0.192786
0.164227
0.102544
0.013624
-0.067991
-0.101521
-0.117758
-0.104036
-0.068535
-0.040508
-0.031026
-0.033674
-0.038341
-0.039879
-0.038039
-0.028596
-0.019682
-0.015582
-0.011310
-0.009056
-0.008502
-0.007812
-0.006775
-0.000382
0.000000
0.000000
0.000000
0.000000
-0.038610
-0.035427
-0.036654
-0.036792
-0.039069
-0.043208
-0.048029
-0.043702
-0.030668
-0.036021
-0.033346
-0.026561
-0.017837
-0.005307
0.003511
0.032580
0.000000
0.000849
0.009653
0.031862
0.064239
0.095266
0.113838
0.118184
0.115446
0.111561
0.099221
0.068223
0.014382
-0.048756
-0.094273
-0.105541
-0.089349
-0.055989
-0.024792
-0.008756
-0.006339
-0.008527
-0.011917
-0.015532
-0.019375
-0.023232
-0.026783
-0.029804
-0.032227
-0.034454
-0.036325
-0.038467
-0.040568
-0.047115
0.000000
0.000000
0.000000
0.000000
0.000000
0.000000
0.000000
0.000000
0.000000
0.000000
0.000000
0.000000
0.000000
0.000000
0.000000
0.000000
0.000000
0.000489
0.008355
0.030840
0.132224
0.009894
-0.073575
-0.107783
-0.125660
-0.116837
-0.081637
-0.052554
-0.037425
-0.037267
-0.039885
-0.039842
-0.036473
-0.027284
-0.021914
-0.021524
-0.017637
-0.015878
-0.018932
-0.019181
-0.017111
-0.010145
-0.012995
-0.011244
-0.014561
-0.016453
-0.016102
-0.021550
-0.027497
-0.034274
-0.041753
-0.051410
-0.062759
-0.072886
0.000000
0.000000
0.000000
0.000000
0.007342
0.007223
0.008872
0.017771
0.052299
0.094574
0.120460
0.099904
0.065949
0.101537
0.123849
0.129119
0.125590
0.118406
0.102277
0.067861
0.010825
-0.055456
-0.104224
-0.116996
-0.101018
-0.066107
-0.031538
-0.011621
-0.006560
-0.007447
-0.009578
-0.012309
-0.016243
-0.020400
-0.024451
-0.027254
-0.029487
-0.031935
-0.034160
-0.036407
-0.038837
-0.043333
0.000000
0.000000
0.000000
0.000000
0.000000
0.000000
0.000000
0.000000
0.000000
0.000000
0.000000
0.000000
0.000000
0.000000
0.000000
0.000000
0.000000
0.000109
0.006380
0.027618
0.064219
0.104606
0.132494
0.140835
-0.076980
-0.081800
-0.076141
-0.052674
-0.040368
-0.038230
-0.039794
-0.039850
-0.033341
-0.022492
-0.020528
-0.021490
-0.018961
-0.017133
-0.020228
-0.021861
-0.020571
-0.014170
-0.016369
-0.016196
-0.019411
-0.019519
-0.017205
-0.019946
-0.024272
-0.028767
-0.034796
-0.041895
-0.045243
-0.048194
-0.046259
-0.047095
-0.042612
-0.036679
-0.029824
-0.021933
-0.012462
0.008006
0.042024
0.094610
0.129881
0.143192
0.000000
0.000000
0.000000
0.000000
0.136769
0.126834
0.107443
0.070604
0.011964
-0.056540
-0.109146
-0.124502
-0.112198
-0.078131
-0.041643
-0.017711
-0.008667
-0.008021
-0.009042
-0.010610
-0.013730
-0.017968
-0.021508
-0.023750
-0.026045
-0.028827
-0.031228
-0.033522
-0.035756
-0.040155
0.000000
0.000000
0.000000
0.000000
0.000000
0.000000
0.000000
0.000000
0.000000
0.000000
0.000000
0.000000
0.000000
0.000000
0.000000
0.000000
0.000000
0.000000
0.004122
0.022759
0.058981
0.103320
0.138497
0.152306
0.149077
0.137355
0.115231
0.076727
-0.070463
-0.017452
-0.016468
-0.016118
-0.016543
-0.014741
-0.017300
-0.015989
-0.016376
-0.014955
-0.018849
-0.022796
-0.022074
-0.015339
-0.017314
-0.016964
-0.020085
-0.019495
-0.016042
-0.016346
-0.020527
-0.024643
-0.030178
-0.036990
-0.040662
-0.042851
-0.043603
-0.046464
-0.044302
-0.040114
-0.034100
-0.024463
-0.011725
0.010359
0.048207
0.102082
0.155197
0.186933
0.189284
0.182067
0.165177
0.143005
0.102183
0.039937
-0.005697
-0.034830
0.017670
-0.052331
-0.108747
-0.129775
-0.122894
-0.092063
-0.054381
-0.026573
-0.013334
-0.009824
-0.009770
-0.010223
-0.012000
-0.015063
-0.018521
-0.021121
-0.023535
-0.026246
-0.028328
-0.030122
-0.031275
-0.037786
0.000000
0.000000
0.000000
0.000000
0.000000
0.000000
0.000000
0.000000
0.000000
0.000000
0.000000
0.000000
0.000000
0.000000
0.000000
0.000000
0.000000
0.000000
0.002072
0.016834
0.050786
0.097787
0.140545
0.162239
0.162445
0.150362
0.125783
0.086088
0.027664
-0.042557
-0.103419
-0.133938
-0.078829
-0.039192
-0.012040
0.006821
0.000000
0.000000
0.000000
0.000000
-0.025081
-0.020585
-0.019770
-0.019495
-0.024389
-0.025437
-0.025723
-0.027156
-0.026705
-0.026693
-0.027966
-0.031420
-0.033527
-0.038361
-0.041354
-0.045376
-0.043712
-0.041320
-0.035651
-0.026053
-0.012971
0.007313
0.038079
0.088004
0.145163
0.188003
0.204399
0.212742
0.213359
0.195540
0.133785
0.046343
-0.043297
-0.105542
-0.111997
-0.094396
-0.082120
-0.078739
-0.131823
-0.106808
-0.070467
-0.039403
-0.021564
-0.014399
-0.011945
-0.010700
-0.011026
-0.012634
-0.015103
-0.017625
-0.020283
-0.023031
-0.025148
-0.027195
-0.028040
-0.035226
0.000000
0.000000
0.000000
0.000000
0.000000
0.000000
0.000000
0.000000
0.000000
0.000000
0.000000
0.000000
0.000000
0.000000
0.000000
0.000000
0.000000
0.000000
0.000639
0.010806
0.040272
0.087471
0.137038
0.169407
0.175192
0.165640
0.140440
0.099617
0.041814
-0.028218
-0.093406
-0.131563
-0.137884
-0.120944
-0.087986
-0.055204
-0.034207
-0.056699
-0.054709
-0.044935
-0.034145
-0.018184
-0.013281
-0.010396
-0.010772
-0.014603
-0.015673
-0.018345
0.000000
0.000000
0.000000
0.000000
-0.028271
-0.026608
-0.027920
-0.032373
-0.028529
-0.023233
-0.017771
-0.012618
-0.008318
0.004718
0.026989
0.069674
0.127760
0.180948
0.206882
0.223017
0.235076
0.229152
0.172922
0.083786
-0.015864
-0.097443
-0.124572
-0.121491
-0.113992
-0.101497
-0.085129
-0.064052
-0.047942
-0.034396
-0.032675
-0.020957
-0.015604
-0.012644
-0.011447
-0.011079
-0.012485
-0.015083
-0.017776
-0.020145
-0.022044
-0.024320
-0.024975
-0.032182
0.000000
0.000000
0.000000
0.000000
0.000000
0.000000
0.000000
0.000000
0.000000
0.000000
0.000000
0.000000
0.000000
0.000000
0.000000
0.000000
0.000000
0.000000
0.000000
0.005608
0.028728
0.072932
0.127116
0.170359
0.188306
0.182530
0.159023
0.117768
0.060001
-0.009769
-0.077912
-0.124914
-0.138420
-0.131522
-0.105886
-0.073894
-0.047364
-0.030617
-0.021347
-0.016055
-0.019248
-0.026812
-0.034154
-0.034593
-0.034381
-0.031014
-0.024235
-0.021190
-0.017148
-0.015078
-0.014846
-0.018067
-0.023004
-0.026235
-0.032743
-0.038264
-0.035482
-0.026738
-0.012154
0.001880
0.000000
0.000000
0.000000
0.000000
0.101980
0.161560
0.201646
0.218239
0.232645
0.239862
0.206098
0.126181
0.027112
-0.064179
-0.120804
-0.123312
-0.124478
-0.123750
-0.116445
-0.095079
-0.074471
-0.056202
-0.037316
-0.019181
-0.005775
-0.004098
-0.012795
-0.011031
-0.011008
-0.012544
-0.014813
-0.016992
-0.019068
-0.021375
-0.022365
-0.030113
0.000000
0.000000
0.000000
0.000000
0.000000
0.000000
0.000000
0.000000
0.000000
0.000000
0.000000
0.000000
0.000000
0.000000
0.000000
0.000000
0.000000
0.000000
0.000000
0.002000
0.017713
0.055552
0.110526
0.163783
0.194702
0.198036
0.180348
0.140822
0.083283
0.013942
-0.056225
-0.110846
-0.137511
-0.138193
-0.121618
-0.094113
-0.066231
-0.044837
-0.030862
-0.021924
-0.015907
-0.012056
-0.010458
-0.010387
-0.015435
-0.019207
-0.026679
-0.031902
-0.032882
-0.030467
-0.023935
-0.018729
-0.018907
-0.019946
-0.023539
-0.030990
-0.030440
-0.022748
-0.012525
-0.003399
0.004704
0.006558
0.011145
0.032438
0.078858
0.140888
0.191649
0.211490
0.198435
0.162553
0.123162
0.129427
0.000000
0.000000
0.000000
0.000000
-0.108385
-0.112298
-0.119666
-0.118637
-0.105475
-0.085060
-0.063111
-0.041778
-0.020250
-0.004985
-0.007349
-0.015893
-0.015406
-0.011369
-0.011639
-0.013576
-0.016047
-0.018819
-0.020984
-0.029316
0.000000
0.000000
0.000000
0.000000
0.000000
0.000000
0.000000
0.000000
0.000000
0.000000
0.000000
0.000000
0.000000
0.000000
0.000000
0.000000
0.000000
0.000000
0.000000
0.000233
0.008777
0.037568
0.088550
0.148164
0.193524
0.209149
0.200987
0.167910
0.113133
0.044894
-0.027061
-0.089054
-0.127807
-0.138406
-0.132500
-0.113548
-0.088483
-0.064636
-0.045883
-0.032387
-0.022758
-0.016059
-0.011945
-0.009948
-0.009490
-0.010562
-0.013151
-0.016404
-0.031164
-0.029211
-0.026256
-0.023202
-0.019453
-0.020733
-0.016389
-0.017720
-0.013408
-0.006493
0.002913
0.009898
0.011984
0.011344
0.009840
0.019364
0.053040
0.110106
0.171746
0.215404
0.228735
0.235986
0.238346
0.203703
0.122915
0.029595
-0.053555
-0.110571
-0.115362
-0.111396
-0.098103
-0.073873
-0.047798
-0.030004
-0.023496
-0.025850
0.000000
0.000000
0.000000
0.000000
-0.026574
-0.030935
-0.036951
-0.033535
-0.032956
-0.035507
-0.019321
-0.028712
0.000000
0.000000
0.000000
0.000000
0.000000
0.000000
0.000000
0.000000
0.000000
0.000000
0.000000
0.000000
0.000000
0.000000
0.000000
0.000000
0.000000
0.000000
0.000000
0.000000
0.002979
0.021531
0.063795
0.123962
0.181754
0.214432
0.217747
0.196153
0.148715
0.083107
0.009880
-0.058427
-0.108952
-0.133326
-0.136516
-0.128154
-0.110659
-0.089207
-0.068351
-0.050532
-0.036463
-0.025713
-0.017805
-0.012199
-0.009547
-0.009176
-0.010948
-0.014410
-0.017614
-0.029439
0.000000
0.000000
-0.021556
-0.017554
-0.013826
-0.019302
-0.016446
-0.009537
0.000644
0.007033
0.008959
0.008912
0.007943
0.009645
0.030401
0.077496
0.139267
0.196606
0.226207
0.230867
0.236408
0.231550
0.172328
0.087995
0.004662
-0.063768
-0.108396
-0.107589
-0.101262
-0.093361
-0.087896
-0.081401
-0.072559
-0.063169
-0.047898
-0.031098
-0.017307
-0.012000
-0.018591
-0.027582
-0.034866
-0.030658
-0.021807
-0.017158
-0.014792
-0.016286
0.000000
0.000000
0.000000
0.000000
0.000000
0.000000
0.000000
0.000000
0.000000
0.000000
0.000000
0.000000
0.000000
0.000000
0.000000
0.000000
0.000000
0.000000
0.000000
0.000000
0.000336
0.009520
0.039851
0.093820
0.157850
0.207933
0.227539
0.220243
0.185301
0.125980
0.054039
-0.017793
-0.077392
-0.116121
-0.132218
-0.132796
-0.125580
-0.111981
-0.094221
-0.075865
-0.059499
-0.045188
-0.033032
-0.023121
-0.016501
-0.013379
-0.013459
-0.015831
-0.018679
-0.032595
0.000000
0.000000
0.000000
0.000000
0.000000
0.000000
0.000000
0.000000
0.000000
0.000000
0.000000
0.000000
0.000000
0.000000
0.004193
0.038027
0.099943
0.165059
0.214424
0.232802
0.231396
0.233314
0.209845
0.142759
0.063068
-0.008629
-0.065471
-0.101855
-0.099986
-0.091485
-0.082642
-0.077335
-0.068585
-0.057223
-0.049492
-0.040855
-0.028308
-0.018503
-0.016227
-0.024257
-0.033728
-0.031945
-0.037913
-0.037846
-0.038555
-0.040220
-0.040267
-0.037351
-0.033770
-0.032634
-0.030355
-0.034284
0.000000
0.000000
0.000000
0.000000
0.000000
0.000000
0.000000
0.000000
0.000000
0.000000
0.000000
0.000000
0.000000
0.000000
0.000000
0.002576
0.020240
0.062228
0.124307
0.186735
0.227280
0.236089
0.216058
0.168819
0.103241
0.031773
-0.033601
-0.083561
-0.114324
-0.127771
-0.129699
-0.124538
-0.114546
-0.101576
-0.087203
-0.072426
-0.058270
-0.045333
-0.034852
-0.027523
-0.024036
-0.023959
-0.025113
-0.037526
0.000000
0.000000
0.000000
0.000000
0.000000
0.000000
0.000000
0.000000
0.000000
0.000000
-0.003560
-0.001438
-0.001037
-0.000296
0.000093
0.003845
0.000000
0.000000
0.000000
0.000000
0.226133
0.220569
0.220797
0.191488
0.124391
0.053428
-0.006299
-0.054278
-0.088174
-0.088257
-0.081903
-0.071849
-0.065856
-0.054126
-0.041827
-0.035088
-0.031698
-0.025257
-0.019272
-0.019870
-0.029628
-0.032734
-0.032992
-0.030564
-0.029670
-0.031554
-0.034172
-0.038286
-0.043820
-0.050322
-0.051942
-0.051022
-0.046654
-0.035404
-0.010563
0.001555
0.000000
0.000000
0.000000
0.000000
0.000000
0.000000
0.000000
0.000000
0.000000
0.000000
0.000000
0.000039
0.007262
0.034333
0.086114
0.152131
0.209741
0.239001
0.236993
0.207846
0.154543
0.087673
0.020417
-0.036681
-0.078513
-0.105085
-0.119182
-0.123615
-0.121445
-0.117068
-0.109231
-0.098324
-0.086053
-0.073285
-0.061291
-0.050679
-0.042706
-0.037886
-0.035072
-0.039531
0.000000
0.000000
0.000000
0.000000
0.000000
0.000000
0.000000
0.000000
0.000000
0.000000
0.000000
0.000000
0.000000
0.000000
-0.006109
-0.002408
0.015102
0.066119
0.141973
0.199271
0.225200
0.221345
0.199930
0.165601
0.127881
0.079686
0.040024
0.032425
0.000000
0.000000
0.000000
0.000000
-0.059848
-0.055806
-0.054181
-0.045302
-0.033930
-0.028572
-0.024290
-0.018538
-0.023179
-0.026000
-0.029926
-0.035377
-0.032704
-0.031920
-0.033013
-0.035735
-0.041609
-0.049545
-0.056852
-0.060139
-0.057182
-0.044875
-0.016200
-0.001861
0.015029
0.021639
0.022020
0.023354
0.000000
0.000000
0.000000
0.000000
0.000000
0.000000
0.000000
0.000000
0.001216
0.014237
0.050110
0.109000
0.175483
0.224860
0.240582
0.234427
0.200019
0.143152
0.078931
0.019332
-0.028629
-0.063776
-0.088178
-0.104521
-0.113709
-0.116565
-0.115001
-0.110548
-0.103638
-0.094568
-0.084024
-0.072430
-0.061225
-0.051012
-0.041495
-0.033922
0.000000
0.000000
0.000000
0.000000
0.000000
0.000000
0.000000
0.000000
0.000000
0.000000
0.000000
0.000000
0.000000
0.000000
0.000000
0.000000
0.000000
0.000000
0.081282
0.153921
0.204904
0.222964
0.217954
0.208028
0.194715
0.154674
0.100514
0.051615
0.010730
-0.024435
-0.052190
-0.055261
-0.049470
-0.043233
-0.037689
-0.029119
-0.019444
-0.014719
-0.013384
-0.012554
0.000000
0.000000
0.000000
0.000000
-0.016306
-0.033770
-0.039700
-0.042571
-0.042651
-0.044484
-0.047078
-0.048393
-0.048318
-0.039841
-0.009499
0.008970
0.019965
0.023978
0.022258
0.017002
0.010394
0.008943
0.006454
0.012646
0.000000
0.000000
0.000000
0.000000
0.000000
0.003431
0.022555
0.065761
0.128646
0.192290
0.234290
0.244667
0.230714
0.191298
0.135396
0.077488
0.027275
-0.011919
-0.041379
-0.064119
-0.081628
-0.094097
-0.101544
-0.104168
-0.103071
-0.098406
-0.090015
-0.079501
-0.067845
-0.054449
-0.040520
-0.020399
0.000000
0.000000
0.000000
0.000000
0.000000
0.000000
0.000000
0.000000
0.000000
0.000000
0.000000
0.000000
0.000000
0.000000
0.000000
0.000000
0.000000
0.000000
0.000000
0.000000
0.000000
0.000000
0.210507
0.201048
0.193437
0.180217
0.143125
0.098337
0.057759
0.023373
-0.006084
-0.027506
-0.030849
-0.024119
-0.019955
-0.015196
-0.007607
-0.000595
0.001870
0.004390
0.007705
0.010699
0.005923
-0.004952
-0.011790
-0.021529
-0.029251
-0.034143
-0.036127
-0.035612
-0.033518
-0.021849
0.000000
0.000000
0.000000
0.000000
0.000000
0.000000
0.000000
0.000000
0.000000
0.000000
0.000000
0.000014
0.000303
0.001046
0.000547
0.004427
0.000000
0.000045
0.006482
0.031038
0.079283
0.143383
0.203081
0.237348
0.242731
0.225247
0.185135
0.133689
0.083728
0.042319
0.010766
-0.013492
-0.033248
-0.049876
-0.063335
-0.072714
-0.077533
-0.078457
-0.075735
-0.068996
-0.058226
-0.042911
-0.025881
0.006711
0.000000
0.000000
0.000000
0.000000
0.000000
0.000000
0.000000
0.000000
0.000000
0.000000
0.000000
0.000000
0.000000
0.000000
0.000000
0.000000
0.000000
0.000000
0.000000
0.000000
0.000000
0.000000
0.000000
0.000000
0.000563
0.009715
0.159721
0.114909
0.088929
0.061335
0.036188
0.015030
-0.001044
-0.006287
0.004145
0.008546
0.012635
0.019985
0.022938
0.024512
0.027920
0.031417
0.034519
0.021942
0.015433
0.008497
0.002936
-0.001682
-0.005636
-0.007510
-0.008223
-0.009032
-0.010543
0.008878
0.014079
0.020858
0.023014
0.019712
0.015031
0.009274
0.004042
0.001710
0.000399
0.000010
0.000000
0.000000
0.000000
0.000000
0.000540
0.004875
0.029362
0.064958
0.038267
0.089147
0.152320
0.207635
0.236730
0.238512
0.220139
0.182588
0.136914
0.094442
0.060723
0.036143
0.017525
0.001757
-0.012142
-0.023326
-0.031335
-0.035749
-0.036193
-0.032499
-0.024407
-0.011020
0.004284
0.041101
0.000000
0.000000
0.000000
0.000000
0.000000
0.000000
0.000000
0.000000
0.000000
0.000000
0.000000
0.000000
0.000000
0.000000
0.000000
0.000000
0.000000
0.000000
0.000000
0.000000
0.000000
0.000000
0.000000
0.000000
0.000000
0.001174
0.012465
0.043165
0.094351
0.154995
0.106471
0.044133
0.020374
0.009406
0.017069
0.027211
0.034971
0.037977
0.044861
0.046220
0.045939
0.047906
0.055988
0.041932
0.037658
0.033496
0.031142
0.028349
0.026624
0.025048
0.023622
0.023505
0.018925
0.030319
0.024149
0.021551
0.019862
0.014793
0.009066
0.004311
0.000858
0.000003
0.000000
0.000000
0.000000
0.000000
0.000000
0.000000
0.000000
0.000000
0.002474
0.029885
0.075062
0.119969
0.147080
0.144735
0.206295
0.232720
0.233284
0.215677
0.182161
0.142337
0.107013
0.080548
0.061390
0.047132
0.035799
0.026508
0.019008
0.014051
0.012489
0.014495
0.019747
0.029213
0.039234
0.071684
0.000000
0.000000
0.000000
0.000000
0.000000
0.000000
0.000000
0.000000
0.000000
0.000000
0.000000
0.000000
0.000000
0.000000
0.000000
0.000000
0.000000
0.000000
0.000000
0.000000
0.000000
0.000000
0.000000
0.000000
0.000000
0.000000
0.001707
0.014064
0.044965
0.094357
0.151421
0.199296
0.224856
0.227047
0.000000
0.000000
0.000000
0.000000
0.049577
0.050816
0.051897
0.049744
0.063351
0.054838
0.052108
0.051247
0.049959
0.049059
0.048752
0.048833
0.048126
0.046040
0.036919
0.053175
0.027213
0.021059
0.017013
0.010666
0.005331
0.002415
0.000778
0.000000
0.000000
0.000000
0.000000
0.000000
0.000000
0.000000
0.000000
0.000000
0.000000
0.005305
0.027359
0.065699
0.112553
0.151891
0.161743
0.146246
0.121466
0.090915
0.210379
0.182035
0.149879
0.120806
0.098120
0.082764
0.072384
0.064651
0.058487
0.054436
0.052920
0.053712
0.056380
0.061635
0.065291
0.089448
0.000000
0.000000
0.000000
0.000000
0.000000
0.000000
0.000000
0.000000
0.000000
0.000000
0.000000
0.000000
0.000000
0.000000
0.000000
0.000000
0.000000
0.000000
0.000000
0.000000
0.000000
0.000000
0.000000
0.000000
0.000000
0.000000
0.000000
0.001938
0.014143
0.043398
0.089210
0.141838
0.186749
0.211963
0.216064
0.205244
0.182731
0.155897
0.079864
0.104296
0.085751
0.063561
0.051734
0.034130
0.034546
0.040456
0.000000
0.000000
0.000000
0.000000
0.057507
0.048444
0.047648
0.062513
0.026629
0.017949
0.013433
0.007813
0.003894
0.001478
0.000364
0.000000
0.000000
0.000000
0.000000
0.000000
0.000000
0.000000
0.000000
0.000000
0.000000
0.000000
0.004286
0.024016
0.056354
0.094309
0.129171
0.146138
0.142419
0.124321
0.102932
0.082335
0.065391
0.050677
0.131232
0.112740
0.099661
0.090392
0.083945
0.079905
0.077679
0.076818
0.076885
0.078129
0.076587
0.094640
0.000000
0.000000
0.000000
0.000000
0.000000
0.000000
0.000000
0.000000
0.000000
0.000000
0.000000
0.000000
0.000000
0.000000
0.000000
0.000000
0.000000
0.000000
0.000000
0.000000
0.000000
0.000000
0.000000
0.000000
0.000000
0.000000
0.000000
0.000000
0.001772
0.012712
0.038723
0.079438
0.126836
0.168737
0.194919
0.202500
0.194580
0.178948
0.158951
0.139241
0.122649
0.110046
0.094506
0.103380
0.091695
0.077973
0.068068
0.058563
0.057389
0.058349
0.058787
0.060843
0.057281
0.067900
0.031077
0.020715
0.013593
0.006937
0.000000
0.000000
0.000000
0.000000
0.000000
0.000000
0.000000
0.000000
0.000000
0.000000
0.000000
0.000000
0.000000
0.000000
0.000000
0.002444
0.017370
0.043131
0.074054
0.103686
0.125513
0.125973
0.116295
0.101891
0.085245
0.069228
0.054757
0.044264
0.036061
0.030925
0.101101
0.094926
0.090447
0.087217
0.084634
0.082686
0.078772
0.093561
0.000000
0.000000
0.000000
0.000000
0.000000
0.000000
0.000000
0.000000
0.000000
0.000000
0.000000
0.000000
0.000000
0.000000
0.000000
0.000000
0.000000
0.000000
0.000000
0.000000
0.000000
0.000000
0.000000
0.000000
0.000000
0.000000
0.000000
0.000000
0.000000
0.001272
0.010106
0.031652
0.066092
0.107401
0.145807
0.172706
0.184668
0.183283
0.171588
0.156811
0.141207
0.126869
0.115032
0.105605
0.098252
0.092279
0.085629
0.092844
0.086122
0.078500
0.067073
0.062116
0.058295
0.067993
0.029051
0.014815
0.008491
0.003609
0.001126
0.000197
0.000000
0.000000
0.000000
0.000000
0.000000
0.000000
0.000000
0.000000
0.000000
0.000000
0.000000
0.000000
0.000000
0.000000
0.000964
0.011208
0.029784
0.053188
0.076925
0.098090
0.105676
0.101696
0.090538
0.077085
0.065067
0.054307
0.044247
0.036270
0.030629
0.032848
0.037600
0.028702
0.087309
0.083716
0.078852
0.089661
0.000000
0.000000
0.000000
0.000000
0.000000
0.000000
0.000000
0.000000
0.000000
0.000000
0.000000
0.000000
0.000000
0.000000
0.000000
0.000000
0.000000
0.000000
0.000000
0.000000
0.000000
0.000000
0.000000
0.000000
0.000000
0.000000
0.000000
0.000000
0.000000
0.000000
0.000684
0.006887
0.023326
0.050707
0.084993
0.118945
0.145709
0.160778
0.165219
0.159866
0.148834
0.136834
0.124909
0.113859
0.104234
0.095836
0.088897
0.083507
0.078047
0.081521
0.083178
0.072684
0.060966
0.066154
0.027515
0.013462
0.005972
0.002011
0.000427
0.000015
0.000000
0.000000
0.000000
0.000000
0.000000
0.000000
0.000000
0.000000
0.000000
0.000000
0.000000
0.000000
0.000000
0.000000
0.000000
0.000051
0.005969
0.018392
0.034807
0.051877
0.060148
0.062284
0.000000
0.000000
0.000000
0.000000
0.037491
0.029678
0.026612
0.024754
0.027082
0.034074
0.049378
0.050687
0.046617
0.040474
0.000000
0.000000
0.000000
0.000000
0.000000
0.000000
0.000000
0.000000
0.000000
0.000000
0.000000
0.000000
0.000000
0.000000
0.000000
0.000000
0.000000
0.000000
0.000000
0.000000
0.000000
0.000000
0.000000
0.000000
0.000000
0.000000
0.000000
0.000000
0.000000
0.000000
0.000000
0.000223
0.003812
0.015002
0.035096
0.061776
0.090017
0.114500
0.131640
0.140082
0.140718
0.135451
0.126876
0.117200
0.107347
0.097940
0.089249
0.081152
0.073717
0.067928
0.000000
0.000000
0.000000
0.000000
-0.000000
-0.000000
-0.000001
-0.000001
-0.000001
-0.000000
-0.000000
-0.000000
0.000000
0.000000
0.000000
0.000000
0.000000
0.000000
0.000000
0.000000
0.000000
0.000000
0.000000
0.000000
0.000000
0.000000
0.000000
0.002738
0.009822
0.020042
0.032014
0.043837
0.053204
0.058290
0.059386
0.054286
0.047392
0.039365
0.030987
0.022756
0.017490
0.017745
0.025378
0.027702
0.000000
0.000000
0.000000
0.000000
0.041656
0.042664
0.000000
0.000000
0.000000
0.000000
0.000000
0.000000
0.000000
0.000000
0.000000
0.000000
0.000000
0.000000
0.000000
0.000000
0.000000
0.000000
0.000000
0.000000
0.000000
0.000000
0.000000
0.000000
0.000000
0.000000
0.000000
0.000000
0.000000
0.000000
0.000000
0.001511
0.007980
0.021132
0.040021
0.061657
0.082205
0.098549
0.108811
0.113421
0.112780
0.108155
0.101251
0.093024
0.083887
0.074196
0.063714
0.053998
0.000000
0.000000
0.000000
0.000000
0.000000
0.000000
0.000000
0.000000
0.000000
0.000000
0.000000
0.000000
0.000000
0.000000
0.000000
0.000000
0.000000
0.000000
0.000000
0.000000
0.000000
0.000000
0.000000
0.000000
0.000000
0.000000
0.000011
0.000198
0.001451
0.004547
0.009627
0.016354
0.023496
0.029752
0.033795
0.035291
0.034464
0.031384
0.026522
0.020034
0.012872
0.007913
0.012041
0.016474
0.023842
0.031663
0.038879
0.044540
0.047070
0.047849
0.047695
0.046520
0.044503
0.043449
0.000000
0.000000
0.000000
0.000000
0.000000
0.000000
0.000000
0.000000
0.000000
0.000000
0.000000
0.000000
0.000000
0.000000
0.000000
0.000000
0.000000
0.000000
0.000000
0.000000
0.000000
0.000000
0.000000
0.000000
0.000000
0.000000
0.000278
0.003055
0.010307
0.022046
0.036727
0.051926
0.065286
0.075164
0.080901
0.082616
0.080775
0.076009
0.068899
0.060143
0.049350
0.039632
0.000000
0.000000
0.000000
0.000000
0.000000
0.000000
0.000000
0.000000
0.000000
0.000000
0.000000
0.000000
0.002262
0.000359
0.000000
0.000000
0.000000
0.000000
0.000000
0.000000
0.000000
0.000000
0.000000
0.000000
0.000000
0.000000
0.000000
0.000000
0.000000
0.000000
0.000000
0.000000
0.000000
0.000000
0.000000
0.000000
0.000000
0.000000
0.000000
0.000000
0.000000
0.000000
0.000000
0.000000
0.000000
0.000000
0.000000
0.000000
0.000000
0.000000
0.000000
0.000000
0.000000
0.000000
0.000000
0.000000
0.000000
0.000000
0.000000
0.000000
0.000000
0.000000
0.000000
0.000000
0.000000
0.000000
0.000000
0.000000
0.000000
0.000000
0.000000
0.000000
0.000000
0.000000
0.000000
0.000000
0.000000
0.000000
0.000000
0.000000
0.000000
0.000000
0.000581
0.003510
0.009401
0.017753
0.027258
0.036337
0.043670
0.048302
0.050582
0.049740
0.046117
0.040418
0.032374
0.024645
0.000000
0.000000
0.000000
0.000000
0.000000
0.000000
0.000000
0.000000
0.000000
0.000000
0.000000
0.000000
0.000000
0.000000
0.000000
0.000000
0.000000
0.000000
0.000000
0.000000
0.000000
0.000000
0.000000
0.000000
0.000000
0.000000
0.000000
0.000000
0.000000
0.000000
0.000000
0.000000
0.000000
0.000000
0.000000
0.000000
0.000000
0.000000
0.000000
0.000000
0.000000
0.000000
0.000000
0.000000
0.000000
0.000000
0.000000
0.000000
0.000000
0.000000
0.000000
0.000000
0.000000
0.000000
0.000000
0.000000
0.000000
0.000000
0.000000
0.000000
0.000000
0.000000
0.000000
0.000000
0.000000
0.000000
0.000000
0.000000
0.000000
0.000000
0.000000
0.000000
0.000000
0.000000
0.000000
0.000000
0.000000
0.000000
0.000000
0.000000
0.000000
0.000000
0.000000
0.000000
0.000485
0.002444
0.005986
0.010590
0.015404
0.019574
0.022497
0.023745
0.023079
0.020541
0.016331
0.011392
0.000000
0.000000
0.000000
0.000000
0.000000
0.000000
0.000000
0.000000
0.000000
0.000000
0.000000
0.000000
0.000000
0.000000
0.000000
0.000000
0.000000
0.000000
0.000000
0.000000
0.000000
0.000000
0.000000
0.000000
0.000000
0.000000
0.000000
0.000000
0.000000
0.000000
0.000000
0.000000
0.000000
0.000000
0.000000
0.000000
0.000000
0.000000
0.000000
0.000000
0.000000
0.000000
0.000000
0.000000
0.000000
0.000000
0.000000
0.000000
0.000000
0.000000
0.000000
0.000000
0.000000
0.000000
0.000000
0.000000
0.000000
0.000000
0.000000
0.000000
0.000000
0.000000
0.000000
0.000000
0.000000
0.000000
0.000000
0.000000
0.000000
0.000000
0.000000
0.000000
0.000000
0.000000
0.000000
0.000000
0.000000
0.000000
0.000000
0.000000
0.000000
0.000000
0.000000
0.000000
0.000000
0.000000
0.000110
0.000851
0.002260
0.003965
0.005568
0.006725
0.007149
0.006626
0.005297
0.003324
0.000000
0.000000
0.000000
0.000000
0.000000
0.000000
0.000000
0.000000
0.000000
0.000000
0.000000
0.000000
0.000000
0.000000
0.000000
0.000000
0.000000
0.000000
0.000000
0.000000
0.000000
0.000000
0.000000
0.000000
0.000000
0.000000
0.000000
0.000000
0.000000
0.000000
0.000000
0.000000
0.000000
0.000000
0.000000
0.000000
0.000000
0.000000
0.000000
0.000000
0.000000
0.000000
0.000000
0.000000
0.000000
0.000000
0.000000
0.000000
0.000000
0.000000
0.000000
0.000000
0.000000
0.000000
0.000000
0.000000
0.000000
0.000000
0.000000
0.000000
0.000000
0.000000
0.000000
0.000000
0.000000
0.000000
0.000000
0.000000
0.000000
0.000000
0.000000
0.000000
0.000000
0.000000
0.000000
0.000000
0.000000
0.000000
0.000000
0.000000
0.000000
0.000000
0.000000
0.000000
0.000000
0.000000
0.000000
0.000000
0.000000
0.000028
0.000194
0.000463
0.000680
0.000737
0.000607
0.000309
0.000000
0.000000
0.000000
0.000000
0.000000
0.000000
0.000000
0.000000
0.000000
0.000000
0.000000
0.000000
0.000000
0.000000
0.000000
0.000000
0.000000
0.000000
0.000000
0.000000
0.000000
0.000000
0.000000
0.000000
0.000000
0.000000
0.000000
0.000000
0.000000
0.000000
0.000000
0.000000
0.000000
0.000000
0.000000
0.000000
0.000000
0.000000
0.000000
0.000000
0.000000
0.000000
0.000000
0.000000
0.000000
0.000000
0.000000
0.000000
0.000000
0.000000
0.000000
0.000000
0.000000
0.000000
0.000000
0.000000
0.000000
0.000000
0.000000
0.000000
0.000000
0.000000
0.000000
0.000000
0.000000
0.000000
0.000000
0.000000
0.000000
0.000000
0.000000
0.000000
0.000000
0.000000
0.000000
0.000000
0.000000
0.000000
0.000000
0.000000
0.000000
0.000000
0.000000
0.000000
0.000000
0.000000
0.000000
0.000000
0.000000
0.000000
0.000000
0.000000
0.000000
0.000000
0.000000
0.000000
0.000000
0.000000
0.000000
0.000000
0.000000
0.000000
0.000000
0.000000
0.000000
0.000000
0.000000
0.000000
0.000000
0.000000
0.000000
0.000000
0.000000
0.000000
0.000000
0.000000
0.000000
0.000000
0.000000
0.000000
0.000000
0.000000
0.000000
0.000000
0.000000
0.000000
0.000000
0.000000
0.000000
0.000000
0.000000
0.000000
0.000000
0.000000
0.000000
0.000000
0.000000
0.000000
0.000000
0.000000
0.000000
0.000000
0.000000
0.000000
0.000000
0.000000
0.000000
0.000000
0.000000
0.000000
0.000000
0.000000
0.000000
0.000000
0.000000
0.000000
0.000000
0.000000
0.000000
0.000000
0.000000
0.000000
0.000000
0.000000
0.000000
0.000000
0.000000
0.000000
0.000000
0.000000
0.000000
0.000000
0.000000
0.000000
0.000000
0.000000
0.000000
0.000000
0.000000
0.000000
0.000000
0.000000
0.000000
0.000000
0.000000
0.000000
0.000000
0.000000
0.000000
0.000000
0.000000
0.000000
0.000000
0.000000
0.000000
0.000000
0.000000
0.000000
0.000000
0.000000
0.000000
0.000000
0.000000
0.000000
0.000000
0.000000
0.000000
0.000000
0.000000
0.000000
0.000000
0.000000
0.000000
0.000000
0.000000
0.000000
0.000000
0.000000
0.000000
0.000000
0.000000
0.000000
0.000000
0.000000
0.000000
0.000000
0.000000
0.000000
0.000000
0.000000
0.000000
0.000000
0.000000
0.000000
0.000000
0.000000
0.000000
0.000000