# vtk DataFile Version 3.0
Created by write_to_vtk2d
ASCII
DATASET STRUCTURED_POINTS
DIMENSIONS 100 100 1
SPACING 1.000000 1.000000 0.0
ORIGIN 0.000000 0.000000 0.0
POINT_DATA 10000
SCALARS p float 1
LOOKUP_TABLE p_table
0.000000
0.000000
0.000000
0.000000
0.000000
0.000000
0.000000
0.000000
0.000000
0.000000
0.000000
0.000000
0.000000
0.000000
0.000000
0.000000
0.000000
0.000000
0.000000
0.000000
0.000000
0.000000
0.000000
0.000000
0.000000
0.000000
0.000000
0.000000
0.000000
0.000000
0.000000
0.000000
0.000000
0.000000
0.000000
0.000000
0.000000
0.000000
0.000000
0.000000
0.000000
0.000000
0.000000
0.000000
0.000000
0.000000
0.000000
0.000000
0.000000
0.000000
0.000000
0.000000
0.000000
0.000000
0.000000
0.000000
0.000000
0.000000
0.000000
0.000000
0.000000
0.000000
0.000000
0.000000
0.000000
0.000000
0.000000
0.000000
0.000000
0.000000
0.000000
0.000000
0.000000
0.000000
0.000000
0.000000
0.000000
0.000000
0.000000
0.000000
0.000000
0.000000
0.000000
0.000000
0.000000
0.000000
0.000000
0.000000
0.000000
0.000000
0.000000
0.000000
0.000000
0.000000
0.000000
0.000000
0.000000
0.000000
0.000000
0.000000
0.000000
0.000000
0.000000
0.000000
0.000000
0.000000
0.000000
0.000000
0.000000
0.000000
0.000000
0.000000
0.000000
0.000000
0.000000
0.000000
0.000000
0.000000
0.000000
0.000000
0.000000
0.000000
0.000000
0.000000
0.000000
0.000000
0.000000
0.000000
0.000000
0.000000
0.000000
0.000000
0.000000
0.000000
0.000000
0.000000
0.000000
0.000000
0.000000
0.000000
0.000000
0.000000
0.000000
0.000000
0.000000
0.000000
0.000000
0.000000
0.000000
0.000000
0.000000
0.000000
0.000000
0.000000
0.000000
0.000000
0.000000
0.000000
0.000000
0.000000
0.000000
0.000000
0.000000
0.000000
0.000000
0.000000
0.000000
0.000000
0.000000
0.000000
0.000000
0.000000
0.000000
0.000000
0.000000
0.000000
0.000000
0.000000
0.000000
0.000000
0.000000
0.000000
0.000000
0.000000
0.000000
0.000000
0.000000
0.000000
0.000000
0.000000
0.000000
0.000000
0.000000
0.000000
0.000000
0.000000
0.000000
0.000000
0.000000
0.000000
0.000000
0.000000
0.000000
0.000000
0.000000
0.000000
0.000000
0.000000
0.000000
0.000000
0.000000
0.000000
0.000000
0.000000
0.000000
0.000000
0.000000
0.000000
0.000000
0.000000
0.000000
0.000000
0.000000
0.000000
0.000000
0.000000
0.000000
0.000000
0.000000
0.000000
0.000000
0.000000
0.000000
0.000000
0.000000
0.000000
0.000000
0.000000
0.000000
0.000000
0.000000
0.000000
0.000000
0.000000
0.000000
0.000000
0.000000
0.000000
0.000000
0.000000
0.000000
0.000000
0.000000
0.000000
0.000000
0.000000
0.000000
0.000000
0.000000
0.000000
0.000000
0.000000
0.000000
0.000000
0.000000
0.000000
0.000000
0.000000
0.000000
0.000000
0.000000
0.000000
0.000000
0.000000
0.000000
0.000000
0.000000
0.000000
0.000000
0.000000
0.000000
0.000000
0.000000
0.000000
0.000000
0.000000
0.000000
0.000000
0.000000
0.000000
0.000000
0.000000
0.000000
0.000000
0.000000
0.000000
0.000000
0.000000
0.000000
0.000000
0.000000
0.000000
0.000000
0.000000
0.000000
0.000000
0.000000
0.000000
0.000000
0.000000
0.000000
0.000000
0.000000
0.000000
0.000000
0.000000
0.000000
0.000000
0.000000
0.000000
0.000000
0.000000
0.000000
0.000000
0.000000
0.000000
0.000000
0.000000
0.000000
0.000000
0.000000
0.000000
0.000000
0.000000
0.000000
0.000000
0.000000
0.000000
0.000000
0.000000
0.000000
0.000000
0.000000
0.000000
0.000000
0.000000
0.000000
0.000000
0.000000
0.000000
0.000000
0.000000
0.000000
0.000000
0.000000
0.000000
0.000000
0.000000
0.000000
0.000000
0.000000
0.000000
0.000000
0.000000
0.000000
0.000000
0.000000
0.000000
0.000000
0.000000
0.000000
0.000000
0.000000
0.000000
0.000000
0.000000
0.000000
0.000000
0.000000
0.000000
0.000000
0.000000
0.000000
0.000000
0.000000
0.000000
0.000000
0.000000
0.000000
0.000000
0.000000
0.000000
0.000000
0.000000
0.000000
0.000000
0.000000
0.000000
0.000000
0.000000
0.000000
0.000000
0.000000
0.000000
0.000000
0.000000
0.000000
0.000000
0.000000
0.000000
0.000000
0.000000
0.000000
0.000000
0.000000
0.000000
0.000000
0.000000
0.000000
0.000000
0.000000
0.000000
0.000000
0.000000
0.000000
0.000000
0.000000
0.000000
0.000000
0.000000
0.000000
0.000000
0.000000
0.000000
0.000000
0.000000
0.000000
0.000000
0.000000
0.000000
0.000000
0.000000
0.000000
0.000000
0.000000
0.000000
0.000000
0.000000
0.000000
0.000000
0.000000
0.000000
0.000000
0.000000
0.000000
0.000000
0.000000
0.000000
0.000000
0.000000
0.000000
0.000000
0.000000
0.000000
0.000000
0.000000
0.000000
0.000000
0.000000
0.000000
0.000000
0.000000
0.000000
0.000000
0.000000
0.000000
0.000000
0.000000
0.000000
0.000000
0.000000
0.000000
0.000000
0.000000
0.000000
0.000000
0.000000
0.000000
0.000000
0.000000
0.000000
0.000000
0.000000
0.000000
0.000000
0.000000
0.000000
0.000000
0.000000
0.000000
0.000000
0.000000
0.000000
0.000000
0.000000
0.000000
0.000000
0.000000
0.000000
0.000000
0.000000
0.000000
0.000000
0.000000
0.000000
0.000000
0.000000
0.000000
0.000000
0.000000
0.000000
0.000000
0.000000
0.000000
0.000000
0.000000
0.000000
0.000000
0.000000
0.000000
0.000000
0.000000
0.000000
0.000000
0.000000
0.000000
0.000000
0.000000
0.000000
0.000000
0.000000
0.000000
0.000000
0.000000
0.000000
0.000000
0.000000
0.000000
0.000000
0.000000
0.000000
0.000000
0.000000
0.000000
0.000000
0.000000
0.000000
0.000000
0.000000
0.000000
0.000000
0.000000
0.000000
0.000000
0.000000
0.000000
0.000000
0.000000
0.000000
0.000000
0.000000
0.000000
0.000000
0.000000
0.000000
0.000000
0.000000
0.000000
0.000000
0.000000
0.000000
0.000000
0.000000
0.000000
0.000000
0.000000
0.000000
0.000000
0.000000
0.000000
0.000000
0.000000
0.000000
0.000000
0.000000
0.000000
0.000000
0.000000
0.000000
0.000000
0.000000
0.000000
0.000000
0.000000
0.000000
0.000000
0.000000
0.000000
0.000000
0.000000
0.000000
0.000000
0.000000
0.000000
0.000000
0.000000
0.000000
0.000000
0.000000
0.000000
0.000000
0.000000
0.000000
0.000000
0.000000
0.000000
0.000000
0.000000
0.000000
0.000000
0.000000
0.000000
0.000000
0.000000
0.000000
0.000000
0.000000
0.000000
0.000000
0.000000
0.000000
0.000000
0.000000
0.000000
0.000000
0.000000
0.000000
0.000000
0.000000
0.000000
0.000000
0.000000
0.000000
0.000000
0.000000
0.000000
0.000000
0.000000
0.000000
0.000000
0.000000
0.000000
0.000000
0.000000
0.000000
0.000000
0.000000
0.000000
0.000000
0.000000
0.000000
0.000000
0.000000
0.000000
0.000000
0.000000
0.000000
0.000000
0.000000
0.000000
0.000000
0.000000
0.000000
0.000000
0.000000
0.000000
0.000000
0.000000
0.000000
0.000000
0.000000
0.000000
0.000000
0.000000
0.000000
0.000000
0.000000
0.000000
0.000000
0.000000
0.000000
0.000000
0.000000
0.000000
0.000000
0.000000
0.000000
0.000000
0.000000
0.000000
0.000000
0.000000
0.000000
0.000000
0.000000
0.000000
0.000000
0.000000
0.000000
0.000000
0.000000
0.000000
0.000000
0.000000
0.000000
0.000000
0.000000
0.000000
0.000000
0.000000
0.000000
0.000000
0.000000
0.000000
0.000000
0.000000
0.000000
0.000000
0.000000
0.000000
0.000000
0.000000
0.000000
0.000000
0.000000
0.000000
0.000000
0.000000
0.000000
0.000000
0.000000
0.000000
0.000000
0.000000
0.000000
0.000000
0.000000
0.000000
0.000000
0.000000
0.000000
0.000000
0.000000
0.000000
0.000000
0.000000
0.000000
0.000000
0.000000
0.000000
0.000000
0.000000
0.000000
0.000000
0.000000
0.000000
0.000000
0.000000
0.000000
0.000000
0.000000
0.000000
0.000000
0.000000
0.000000
0.000000
0.000000
0.000000
0.000000
0.000000
0.000000
0.000000
0.000000
0.000000
0.000000
0.000000
0.000000
0.000000
0.000000
0.000000
0.000000
0.000000
0.000000
0.000000
0.000000
0.000000
0.000000
0.000000
0.000000
0.000000
0.000000
0.000000
0.000000
0.000000
0.000000
0.000000
0.000000
0.000000
0.000000
0.000000
0.000000
0.000000
0.000000
0.000000
0.000000
0.000000
0.000000
0.000000
0.000000
0.000000
0.000000
0.000000
0.000000
0.000000
0.000000
0.000000
0.000000
0.000000
0.000000
0.000000
0.000000
0.000000
0.000000
0.000000
0.000000
0.000000
0.000000
0.000000
0.000000
0.000000
0.000000
0.000000
0.000000
0.000000
0.000000
0.000000
0.000000
0.000000
0.000000
0.000000
0.000000
0.000000
0.000000
0.000000
0.000000
0.000000
0.000000
0.000000
0.000000
0.000000
0.000000
0.000000
0.000000
0.000000
0.000000
0.000000
0.000000
0.000000
0.000000
0.000000
0.000000
0.000000
0.000000
0.000000
0.000000
0.000000
0.000000
0.000000
0.000000
0.000000
0.000000
0.000000
0.000000
0.000000
0.000000
0.000000
0.000000
0.000000
0.000000
0.000000
0.000000
0.000000
0.000000
0.000000
0.000000
0.000000
0.000000
0.000000
0.000000
0.000000
0.000000
0.000000
0.000000
0.000000
0.000000
0.000000
0.000000
0.000000
0.000000
0.000000
0.000000
0.000000
0.000000
0.000000
0.000000
0.000000
0.000000
0.000000
0.000000
0.000000
0.000000
0.000000
0.000000
0.000000
0.000000
0.000000
0.000000
0.000000
0.000000
0.000000
0.000000
0.000000
0.000000
0.000190
0.000602
0.001106
0.001707
0.002296
0.002764
0.003061
0.003174
0.003061
0.002764
0.002296
0.001707
0.001106
0.000602
0.000190
0.000000
0.000000
0.000000
0.000000
0.000000
0.000000
0.000000
0.000000
0.000000
0.000000
0.000000
0.000000
0.000000
0.000000
0.000000
0.000000
0.000000
0.000000
0.000000
0.000000
0.000000
0.000000
0.000000
0.000000
0.000000
0.000000
0.000000
0.000000
0.000000
0.000000
0.000000
0.000000
0.000000
0.000000
0.000000
0.000000
0.000000
0.000000
0.000000
0.000000
0.000000
0.000000
0.000000
0.000000
0.000000
0.000000
0.000000
0.000000
0.000000
0.000000
0.000000
0.000000
0.000000
0.000000
0.000000
0.000000
0.000000
0.000000
0.000000
0.000000
0.000000
0.000000
0.000000
0.000000
0.000000
0.000000
0.000000
0.000000
0.000000
0.000000
0.000000
0.000000
0.000000
0.000000
0.000000
0.000000
0.000000
0.000000
0.000000
0.000000
0.000000
0.000320
0.001197
0.002702
0.004756
0.007205
0.009901
0.012614
0.015118
0.017287
0.018936
0.019962
0.020354
0.019962
0.018936
0.017287
0.015118
0.012614
0.009901
0.007205
0.004756
0.002702
0.001197
0.000320
0.000000
0.000000
0.000000
0.000000
0.000000
0.000000
0.000000
0.000000
0.000000
0.000000
0.000000
0.000000
0.000000
0.000000
0.000000
0.000000
0.000000
0.000000
0.000000
0.000000
0.000000
0.000000
0.000000
0.000000
0.000000
0.000000
0.000000
0.000000
0.000000
0.000000
0.000000
0.000000
0.000000
0.000000
0.000000
0.000000
0.000000
0.000000
0.000000
0.000000
0.000000
0.000000
0.000000
0.000000
0.000000
0.000000
0.000000
0.000000
0.000000
0.000000
0.000000
0.000000
0.000000
0.000000
0.000000
0.000000
0.000000
0.000000
0.000000
0.000000
0.000000
0.000000
0.000000
0.000000
0.000000
0.000000
0.000000
0.000000
0.000000
0.000000
0.000000
0.000000
0.000000
0.000000
0.000320
0.001600
0.004070
0.007777
0.012617
0.018301
0.024549
0.030959
0.037240
0.043013
0.048073
0.052219
0.055283
0.057189
0.057881
0.057189
0.055283
0.052219
0.048073
0.043013
0.037240
0.030959
0.024549
0.018301
0.012617
0.007777
0.004070
0.001600
0.000320
0.000000
0.000000
0.000000
0.000000
0.000000
0.000000
0.000000
0.000000
0.000000
0.000000
0.000000
0.000000
0.000000
0.000000
0.000000
0.000000
0.000000
0.000000
0.000000
0.000000
0.000000
0.000000
0.000000
0.000000
0.000000
0.000000
0.000000
0.000000
0.000000
0.000000
0.000000
0.000000
0.000000
0.000000
0.000000
0.000000
0.000000
0.000000
0.000000
0.000000
0.000000
0.000000
0.000000
0.000000
0.000000
0.000000
0.000000
0.000000
0.000000
0.000000
0.000000
0.000000
0.000000
0.000000
0.000000
0.000000
0.000000
0.000000
0.000000
0.000000
0.000000
0.000000
0.000000
0.000000
0.000000
0.000000
0.000000
0.000000
0.000000
0.000784
0.003158
0.007511
0.013917
0.022170
0.031845
0.042479
0.053515
0.064403
0.074723
0.084103
0.092296
0.099154
0.104569
0.108513
0.110911
0.111703
0.110911
0.108513
0.104569
0.099154
0.092296
0.084103
0.074723
0.064403
0.053515
0.042479
0.031845
0.022170
0.013917
0.007511
0.003158
0.000784
0.000000
0.000000
0.000000
0.000000
0.000000
0.000000
0.000000
0.000000
0.000000
0.000000
0.000000
0.000000
0.000000
0.000000
0.000000
0.000000
0.000000
0.000000
0.000000
0.000000
0.000000
0.000000
0.000000
0.000000
0.000000
0.000000
0.000000
0.000000
0.000000
0.000000
0.000000
0.000000
0.000000
0.000000
0.000000
0.000000
0.000000
0.000000
0.000000
0.000000
0.000000
0.000000
0.000000
0.000000
0.000000
0.000000
0.000000
0.000000
0.000000
0.000000
0.000000
0.000000
0.000000
0.000000
0.000000
0.000000
0.000000
0.000000
0.000000
0.000000
0.000000
0.000000
0.000000
0.000000
0.000000
0.000917
0.004041
0.010060
0.019063
0.030771
0.044590
0.059780
0.075526
0.091066
0.105783
0.119190
0.131005
0.141107
0.149491
0.156183
0.161265
0.164845
0.166930
0.167595
0.166930
0.164845
0.161265
0.156183
0.149491
0.141107
0.131005
0.119190
0.105783
0.091066
0.075526
0.059780
0.044590
0.030771
0.019063
0.010060
0.004041
0.000917
0.000000
0.000000
0.000000
0.000000
0.000000
0.000000
0.000000
0.000000
0.000000
0.000000
0.000000
0.000000
0.000000
0.000000
0.000000
0.000000
0.000000
0.000000
0.000000
0.000000
0.000000
0.000000
0.000000
0.000000
0.000000
0.000000
0.000000
0.000000
0.000000
0.000000
0.000000
0.000000
0.000000
0.000000
0.000000
0.000000
0.000000
0.000000
0.000000
0.000000
0.000000
0.000000
0.000000
0.000000
0.000000
0.000000
0.000000
0.000000
0.000000
0.000000
0.000000
0.000000
0.000000
0.000000
0.000000
0.000000
0.000000
0.000000
0.000000
0.000000
0.000000
0.000618
0.003727
0.010574
0.021523
0.036225
0.053837
0.073261
0.093362
0.113076
0.131517
0.148070
0.162358
0.174352
0.184113
0.191816
0.197762
0.202205
0.205423
0.207502
0.208655
0.209033
0.208655
0.207502
0.205423
0.202205
0.197762
0.191816
0.184113
0.174352
0.162358
0.148070
0.131517
0.113076
0.093362
0.073261
0.053837
0.036225
0.021523
0.010574
0.003727
0.000618
0.000000
0.000000
0.000000
0.000000
0.000000
0.000000
0.000000
0.000000
0.000000
0.000000
0.000000
0.000000
0.000000
0.000000
0.000000
0.000000
0.000000
0.000000
0.000000
0.000000
0.000000
0.000000
0.000000
0.000000
0.000000
0.000000
0.000000
0.000000
0.000000
0.000000
0.000000
0.000000
0.000000
0.000000
0.000000
0.000000
0.000000
0.000000
0.000000
0.000000
0.000000
0.000000
0.000000
0.000000
0.000000
0.000000
0.000000
0.000000
0.000000
0.000000
0.000000
0.000000
0.000000
0.000000
0.000000
0.000000
0.000000
0.000108
0.002359
0.008737
0.020345
0.037044
0.057747
0.080908
0.104899
0.128259
0.149792
0.168642
0.184435
0.196981
0.206721
0.213819
0.218854
0.222447
0.224715
0.225991
0.226679
0.227007
0.227156
0.227192
0.227156
0.227007
0.226679
0.225991
0.224715
0.222447
0.218854
0.213819
0.206721
0.196981
0.184435
0.168642
0.149792
0.128259
0.104899
0.080908
0.057747
0.037044
0.020345
0.008737
0.002359
0.000108
0.000000
0.000000
0.000000
0.000000
0.000000
0.000000
0.000000
0.000000
0.000000
0.000000
0.000000
0.000000
0.000000
0.000000
0.000000
0.000000
0.000000
0.000000
0.000000
0.000000
0.000000
0.000000
0.000000
0.000000
0.000000
0.000000
0.000000
0.000000
0.000000
0.000000
0.000000
0.000000
0.000000
0.000000
0.000000
0.000000
0.000000
0.000000
0.000000
0.000000
0.000000
0.000000
0.000000
0.000000
0.000000
0.000000
0.000000
0.000000
0.000000
0.000000
0.000000
0.000000
0.000000
0.000000
0.000798
0.005298
0.015715
0.032697
0.055351
0.081634
0.109175
0.135889
0.160198
0.180992
0.197670
0.210316
0.219121
0.224980
0.228106
0.230082
0.230649
0.229756
0.229551
0.229212
0.228608
0.228128
0.227845
0.227733
0.227845
0.228128
0.228608
0.229212
0.229551
0.229756
0.230649
0.230082
0.228106
0.224980
0.219121
0.210316
0.197670
0.180992
0.160198
0.135889
0.109175
0.081634
0.055351
0.032697
0.015715
0.005298
0.000798
0.000000
0.000000
0.000000
0.000000
0.000000
0.000000
0.000000
0.000000
0.000000
0.000000
0.000000
0.000000
0.000000
0.000000
0.000000
0.000000
0.000000
0.000000
0.000000
0.000000
0.000000
0.000000
0.000000
0.000000
0.000000
0.000000
0.000000
0.000000
0.000000
0.000000
0.000000
0.000000
0.000000
0.000000
0.000000
0.000000
0.000000
0.000000
0.000000
0.000000
0.000000
0.000000
0.000000
0.000000
0.000000
0.000000
0.000000
0.000000
0.000000
0.000000
0.000000
0.000000
0.001936
0.009227
0.024067
0.046573
0.074801
0.105625
0.135886
0.163196
0.186105
0.203886
0.216495
0.224643
0.229006
0.230748
0.230354
0.230055
0.228806
0.227386
0.225641
0.224231
0.223063
0.222098
0.221499
0.221225
0.221136
0.221225
0.221499
0.222098
0.223063
0.224231
0.225641
0.227386
0.228806
0.230055
0.230354
0.230748
0.229006
0.224643
0.216495
0.203886
0.186105
0.163196
0.135886
0.105625
0.074801
0.046573
0.024067
0.009227
0.001936
0.000000
0.000000
0.000000
0.000000
0.000000
0.000000
0.000000
0.000000
0.000000
0.000000
0.000000
0.000000
0.000000
0.000000
0.000000
0.000000
0.000000
0.000000
0.000000
0.000000
0.000000
0.000000
0.000000
0.000000
0.000000
0.000000
0.000000
0.000000
0.000000
0.000000
0.000000
0.000000
0.000000
0.000000
0.000000
0.000000
0.000000
0.000000
0.000000
0.000000
0.000000
0.000000
0.000000
0.000000
0.000000
0.000000
0.000000
0.000000
0.000000
0.000162
0.003402
0.013589
0.032891
0.060676
0.093768
0.127825
0.158987
0.184848
0.204461
0.217814
0.225781
0.229636
0.229904
0.229520
0.227619
0.224832
0.221922
0.218796
0.216096
0.213563
0.211826
0.210624
0.209782
0.209351
0.209151
0.209085
0.209151
0.209351
0.209782
0.210624
0.211826
0.213563
0.216096
0.218796
0.221922
0.224832
0.227619
0.229520
0.229904
0.229636
0.225781
0.217814
0.204461
0.184848
0.158987
0.127825
0.093768
0.060676
0.032891
0.013589
0.003402
0.000162
0.000000
0.000000
0.000000
0.000000
0.000000
0.000000
0.000000
0.000000
0.000000
0.000000
0.000000
0.000000
0.000000
0.000000
0.000000
0.000000
0.000000
0.000000
0.000000
0.000000
0.000000
0.000000
0.000000
0.000000
0.000000
0.000000
0.000000
0.000000
0.000000
0.000000
0.000000
0.000000
0.000000
0.000000
0.000000
0.000000
0.000000
0.000000
0.000000
0.000000
0.000000
0.000000
0.000000
0.000000
0.000000
0.000000
0.000390
0.004870
0.017827
0.041276
0.073787
0.110827
0.146829
0.177358
0.200282
0.215491
0.224280
0.227813
0.228852
0.227648
0.224554
0.220532
0.216032
0.211466
0.207234
0.203591
0.200482
0.198172
0.196546
0.195494
0.194835
0.194451
0.194177
0.194076
0.194177
0.194451
0.194835
0.195494
0.196546
0.198172
0.200482
0.203591
0.207234
0.211466
0.216032
0.220532
0.224554
0.227648
0.228852
0.227813
0.224280
0.215491
0.200282
0.177358
0.146829
0.110827
0.073787
0.041276
0.017827
0.004870
0.000390
0.000000
0.000000
0.000000
0.000000
0.000000
0.000000
0.000000
0.000000
0.000000
0.000000
0.000000
0.000000
0.000000
0.000000
0.000000
0.000000
0.000000
0.000000
0.000000
0.000000
0.000000
0.000000
0.000000
0.000000
0.000000
0.000000
0.000000
0.000000
0.000000
0.000000
0.000000
0.000000
0.000000
0.000000
0.000000
0.000000
0.000000
0.000000
0.000000
0.000000
0.000000
0.000000
0.000000
0.000000
0.000572
0.006062
0.021348
0.048370
0.084890
0.125051
0.162022
0.190881
0.210054
0.220824
0.225500
0.226896
0.225802
0.222540
0.217730
0.212010
0.206080
0.200655
0.195754
0.191458
0.187919
0.185106
0.183012
0.181312
0.179885
0.178666
0.177654
0.176897
0.176623
0.176897
0.177654
0.178666
0.179885
0.181312
0.183012
0.185106
0.187919
0.191458
0.195754
0.200655
0.206080
0.212010
0.217730
0.222540
0.225802
0.226896
0.225500
0.220824
0.210054
0.190881
0.162022
0.125051
0.084890
0.048370
0.021348
0.006062
0.000572
0.000000
0.000000
0.000000
0.000000
0.000000
0.000000
0.000000
0.000000
0.000000
0.000000
0.000000
0.000000
0.000000
0.000000
0.000000
0.000000
0.000000
0.000000
0.000000
0.000000
0.000000
0.000000
0.000000
0.000000
0.000000
0.000000
0.000000
0.000000
0.000000
0.000000
0.000000
0.000000
0.000000
0.000000
0.000000
0.000000
0.000000
0.000000
0.000000
0.000000
0.000000
0.000000
0.000639
0.006737
0.023655
0.053472
0.093261
0.135886
0.173265
0.200120
0.215591
0.222569
0.224183
0.224231
0.221706
0.216989
0.210747
0.204086
0.197710
0.191843
0.186669
0.182141
0.178166
0.174803
0.171985
0.169376
0.166724
0.163989
0.161357
0.159152
0.157673
0.157165
0.157673
0.159152
0.161357
0.163989
0.166724
0.169376
0.171985
0.174803
0.178166
0.182141
0.186669
0.191843
0.197710
0.204086
0.210747
0.216989
0.221706
0.224231
0.224183
0.222569
0.215591
0.200120
0.173265
0.135886
0.093261
0.053472
0.023655
0.006737
0.000639
0.000000
0.000000
0.000000
0.000000
0.000000
0.000000
0.000000
0.000000
0.000000
0.000000
0.000000
0.000000
0.000000
0.000000
0.000000
0.000000
0.000000
0.000000
0.000000
0.000000
0.000000
0.000000
0.000000
0.000000
0.000000
0.000000
0.000000
0.000000
0.000000
0.000000
0.000000
0.000000
0.000000
0.000000
0.000000
0.000000
0.000000
0.000000
0.000000
0.000000
0.000575
0.006740
0.024453
0.056118
0.098428
0.143106
0.180861
0.205844
0.217991
0.221335
0.222401
0.220931
0.217537
0.212166
0.205444
0.198384
0.191738
0.185895
0.180688
0.175977
0.171726
0.167871
0.164246
0.160557
0.156494
0.152066
0.147570
0.143468
0.140256
0.138260
0.137596
0.138260
0.140256
0.143468
0.147570
0.152066
0.156494
0.160557
0.164246
0.167871
0.171726
0.175977
0.180688
0.185895
0.191738
0.198384
0.205444
0.212166
0.217537
0.220931
0.222401
0.221335
0.217991
0.205844
0.180861
0.143106
0.098428
0.056118
0.024453
0.006740
0.000575
0.000000
0.000000
0.000000
0.000000
0.000000
0.000000
0.000000
0.000000
0.000000
0.000000
0.000000
0.000000
0.000000
0.000000
0.000000
0.000000
0.000000
0.000000
0.000000
0.000000
0.000000
0.000000
0.000000
0.000000
0.000000
0.000000
0.000000
0.000000
0.000000
0.000000
0.000000
0.000000
0.000000
0.000000
0.000000
0.000000
0.000000
0.000000
0.000408
0.006074
0.023632
0.056082
0.100134
0.146676
0.185177
0.209086
0.219022
0.220717
0.219956
0.217720
0.214323
0.208952
0.202264
0.195178
0.188442
0.182438
0.177110
0.172172
0.167440
0.162961
0.158555
0.153864
0.148532
0.142614
0.136564
0.131018
0.126489
0.123280
0.121442
0.120852
0.121442
0.123280
0.126489
0.131018
0.136564
0.142614
0.148532
0.153864
0.158555
0.162961
0.167440
0.172172
0.177110
0.182438
0.188442
0.195178
0.202264
0.208952
0.214323
0.217720
0.219956
0.220717
0.219022
0.209086
0.185177
0.146676
0.100134
0.056082
0.023632
0.006074
0.000408
0.000000
0.000000
0.000000
0.000000
0.000000
0.000000
0.000000
0.000000
0.000000
0.000000
0.000000
0.000000
0.000000
0.000000
0.000000
0.000000
0.000000
0.000000
0.000000
0.000000
0.000000
0.000000
0.000000
0.000000
0.000000
0.000000
0.000000
0.000000
0.000000
0.000000
0.000000
0.000000
0.000000
0.000000
0.000000
0.000000
0.000201
0.004882
0.021304
0.053371
0.098314
0.146611
0.186551
0.210540
0.219300
0.219914
0.217961
0.215231
0.211758
0.207434
0.201243
0.193985
0.186875
0.180450
0.174633
0.169097
0.163721
0.158363
0.152936
0.147109
0.140597
0.133481
0.126368
0.120034
0.115072
0.111655
0.109593
0.108561
0.108252
0.108561
0.109593
0.111655
0.115072
0.120034
0.126368
0.133481
0.140597
0.147109
0.152936
0.158363
0.163721
0.169097
0.174633
0.180450
0.186875
0.193985
0.201243
0.207434
0.211758
0.215231
0.217961
0.219914
0.219300
0.210540
0.186551
0.146611
0.098314
0.053371
0.021304
0.004882
0.000201
0.000000
0.000000
0.000000
0.000000
0.000000
0.000000
0.000000
0.000000
0.000000
0.000000
0.000000
0.000000
0.000000
0.000000
0.000000
0.000000
0.000000
0.000000
0.000000
0.000000
0.000000
0.000000
0.000000
0.000000
0.000000
0.000000
0.000000
0.000000
0.000000
0.000000
0.000000
0.000000
0.000000
0.000000
0.000038
0.003406
0.017791
0.048224
0.093051
0.142917
0.185086
0.210559
0.219192
0.219443
0.216752
0.213557
0.210521
0.206749
0.201314
0.194148
0.186258
0.178809
0.172012
0.165553
0.159096
0.152669
0.146061
0.138911
0.130990
0.122576
0.114485
0.107659
0.102691
0.099631
0.098078
0.097437
0.097242
0.097204
0.097242
0.097437
0.098078
0.099631
0.102691
0.107659
0.114485
0.122576
0.130990
0.138911
0.146061
0.152669
0.159096
0.165553
0.172012
0.178809
0.186258
0.194148
0.201314
0.206749
0.210521
0.213557
0.216752
0.219443
0.219192
0.210559
0.185086
0.142917
0.093051
0.048224
0.017791
0.003406
0.000038
0.000000
0.000000
0.000000
0.000000
0.000000
0.000000
0.000000
0.000000
0.000000
0.000000
0.000000
0.000000
0.000000
0.000000
0.000000
0.000000
0.000000
0.000000
0.000000
0.000000
0.000000
0.000000
0.000000
0.000000
0.000000
0.000000
0.000000
0.000000
0.000000
0.000000
0.000000
0.000000
0.000000
0.001968
0.013574
0.041119
0.084607
0.135575
0.180666
0.209152
0.219272
0.219468
0.216314
0.212772
0.210029
0.206921
0.201945
0.194510
0.185816
0.176932
0.168749
0.161011
0.153355
0.145549
0.137532
0.128998
0.119604
0.109670
0.100207
0.092462
0.087027
0.083824
0.082216
0.081475
0.081076
0.080845
0.080756
0.080845
0.081076
0.081475
0.082216
0.083824
0.087027
0.092462
0.100207
0.109670
0.119604
0.128998
0.137532
0.145549
0.153355
0.161011
0.168749
0.176932
0.185816
0.194510
0.201945
0.206921
0.210029
0.212772
0.216314
0.219468
0.219272
0.209152
0.180666
0.135575
0.084607
0.041119
0.013574
0.001968
0.000000
0.000000
0.000000
0.000000
0.000000
0.000000
0.000000
0.000000
0.000000
0.000000
0.000000
0.000000
0.000000
0.000000
0.000000
0.000000
0.000000
0.000000
0.000000
0.000000
0.000000
0.000000
0.000000
0.000000
0.000000
0.000000
0.000000
0.000000
0.000000
0.000000
0.000000
0.000000
0.000825
0.009197
0.032745
0.073453
0.124642
0.172971
0.205869
0.219056
0.220098
0.216827
0.212809
0.209888
0.207237
0.202598
0.195039
0.185136
0.174835
0.164918
0.155829
0.146942
0.137863
0.128387
0.118245
0.107309
0.095774
0.084643
0.075181
0.068220
0.063405
0.059994
0.057152
0.054518
0.052187
0.050529
0.049928
0.050529
0.052187
0.054518
0.057152
0.059994
0.063405
0.068220
0.075181
0.084643
0.095774
0.107309
0.118245
0.128387
0.137863
0.146942
0.155829
0.164918
0.174835
0.185136
0.195039
0.202598
0.207237
0.209888
0.212809
0.216827
0.220098
0.219056
0.205869
0.172971
0.124642
0.073453
0.032745
0.009197
0.000825
0.000000
0.000000
0.000000
0.000000
0.000000
0.000000
0.000000
0.000000
0.000000
0.000000
0.000000
0.000000
0.000000
0.000000
0.000000
0.000000
0.000000
0.000000
0.000000
0.000000
0.000000
0.000000
0.000000
0.000000
0.000000
0.000000
0.000000
0.000000
0.000000
0.000000
0.000182
0.005321
0.023931
0.060337
0.110352
0.161608
0.199945
0.218244
0.221103
0.218314
0.213723
0.210019
0.207199
0.202935
0.195303
0.184712
0.172787
0.161382
0.150740
0.140762
0.130658
0.119927
0.108343
0.095656
0.082305
0.069157
0.057385
0.047604
0.039536
0.032192
0.024761
0.017116
0.009851
0.003829
-0.000200
-0.001522
-0.000200
0.003829
0.009851
0.017116
0.024761
0.032192
0.039536
0.047604
0.057385
0.069157
0.082305
0.095656
0.108343
0.119927
0.130658
0.140762
0.150740
0.161382
0.172787
0.184712
0.195303
0.202935
0.207199
0.210019
0.213723
0.218314
0.221103
0.218244
0.199945
0.161608
0.110352
0.060337
0.023931
0.005321
0.000182
0.000000
0.000000
0.000000
0.000000
0.000000
0.000000
0.000000
0.000000
0.000000
0.000000
0.000000
0.000000
0.000000
0.000000
0.000000
0.000000
0.000000
0.000000
0.000000
0.000000
0.000000
0.000000
0.000000
0.000000
0.000000
0.000000
0.000000
0.000000
0.000000
0.002357
0.015643
0.046280
0.093252
0.146313
0.190655
0.215707
0.221679
0.220563
0.215629
0.210697
0.206927
0.202623
0.195375
0.184546
0.171686
0.158717
0.146813
0.135692
0.124741
0.113139
0.100250
0.086020
0.070577
0.054930
0.040085
0.026521
0.013740
0.000750
-0.013154
-0.027711
-0.041859
-0.054242
-0.063772
-0.069737
-0.071691
-0.069737
-0.063772
-0.054242
-0.041859
-0.027711
-0.013154
0.000750
0.013740
0.026521
0.040085
0.054930
0.070577
0.086020
0.100250
0.113139
0.124741
0.135692
0.146813
0.158717
0.171686
0.184546
0.195375
0.202623
0.206927
0.210697
0.215629
0.220563
0.221679
0.215707
0.190655
0.146313
0.093252
0.046280
0.015643
0.002357
0.000000
0.000000
0.000000
0.000000
0.000000
0.000000
0.000000
0.000000
0.000000
0.000000
0.000000
0.000000
0.000000
0.000000
0.000000
0.000000
0.000000
0.000000
0.000000
0.000000
0.000000
0.000000
0.000000
0.000000
0.000000
0.000000
0.000000
0.000000
0.000641
0.008687
0.032463
0.074322
0.127227
0.176948
0.210130
0.222640
0.222608
0.218132
0.212094
0.206829
0.201902
0.195052
0.184792
0.171725
0.157819
0.144602
0.132431
0.120660
0.108260
0.094459
0.078650
0.061206
0.042676
0.024051
0.005729
-0.012779
-0.032381
-0.053386
-0.075130
-0.095959
-0.114205
-0.128654
-0.138909
-0.145113
-0.147315
-0.145113
-0.138909
-0.128654
-0.114205
-0.095959
-0.075130
-0.053386
-0.032381
-0.012779
0.005729
0.024051
0.042676
0.061206
0.078650
0.094459
0.108260
0.120660
0.132431
0.144602
0.157819
0.171725
0.184792
0.195052
0.201902
0.206829
0.212094
0.218132
0.222608
0.222640
0.210130
0.176948
0.127227
0.074322
0.032463
0.008687
0.000641
0.000000
0.000000
0.000000
0.000000
0.000000
0.000000
0.000000
0.000000
0.000000
0.000000
0.000000
0.000000
0.000000
0.000000
0.000000
0.000000
0.000000
0.000000
0.000000
0.000000
0.000000
0.000000
0.000000
0.000000
0.000000
0.000000
0.000043
0.003737
0.020187
0.054924
0.105005
0.158440
0.200089
0.221212
0.224675
0.221355
0.214347
0.207229
0.201211
0.194543
0.185248
0.172901
0.158751
0.144579
0.131285
0.118540
0.105431
0.090672
0.073651
0.054040
0.032597
0.009878
-0.013773
-0.038569
-0.064980
-0.092724
-0.120265
-0.145644
-0.166891
-0.183030
-0.194472
-0.201673
-0.205879
-0.207213
-0.205879
-0.201673
-0.194472
-0.183030
-0.166891
-0.145644
-0.120265
-0.092724
-0.064980
-0.038569
-0.013773
0.009878
0.032597
0.054040
0.073651
0.090672
0.105431
0.118540
0.131285
0.144579
0.158751
0.172901
0.185248
0.194543
0.201211
0.207229
0.214347
0.221355
0.224675
0.221212
0.200089
0.158440
0.105005
0.054924
0.020187
0.003737
0.000043
0.000000
0.000000
0.000000
0.000000
0.000000
0.000000
0.000000
0.000000
0.000000
0.000000
0.000000
0.000000
0.000000
0.000000
0.000000
0.000000
0.000000
0.000000
0.000000
0.000000
0.000000
0.000000
0.000000
0.000000
0.000000
0.000954
0.010507
0.036742
0.081049
0.135239
0.184464
0.215635
0.225986
0.224818
0.218067
0.209134
0.201056
0.193975
0.185754
0.174805
0.161291
0.146658
0.132291
0.118495
0.104412
0.088907
0.070656
0.049310
0.024861
-0.001952
-0.030867
-0.061908
-0.094638
-0.127833
-0.159082
-0.185743
-0.206151
-0.219837
-0.228236
-0.232239
-0.234353
-0.235533
-0.235835
-0.235533
-0.234353
-0.232239
-0.228236
-0.219837
-0.206151
-0.185743
-0.159082
-0.127833
-0.094638
-0.061908
-0.030867
-0.001952
0.024861
0.049310
0.070656
0.088907
0.104412
0.118495
0.132291
0.146658
0.161291
0.174805
0.185754
0.193975
0.201056
0.209134
0.218067
0.224818
0.225986
0.215635
0.184464
0.135239
0.081049
0.036742
0.010507
0.000954
0.000000
0.000000
0.000000
0.000000
0.000000
0.000000
0.000000
0.000000
0.000000
0.000000
0.000000