# vtk DataFile Version 3.0
Created by write_to_vtk2d
ASCII
DATASET STRUCTURED_POINTS
DIMENSIONS 100 100 1
SPACING 1.000000 1.000000 0.0
ORIGIN 0.000000 0.000000 0.0
POINT_DATA 10000
SCALARS p float 1
LOOKUP_TABLE p_table
0.044334
0.031022
0.001990
0.003991
0.002809
0.001311
-0.000251
-0.001078
-0.000749
-0.000230
0.000242
-0.000111
0.000000
0.000000
0.000000
0.000000
-0.014262
-0.013447
-0.014438
-0.015445
-0.016565
-0.017872
-0.019387
-0.021241
-0.023125
-0.023614
-0.023537
-0.023342
-0.022695
-0.021802
-0.020527
-0.019033
-0.016881
-0.012374
-0.006008
0.007663
0.025069
0.040734
0.053178
0.061164
0.064182
0.063477
0.056248
0.038586
0.013327
-0.006635
-0.017147
-0.022521
0.013137
-0.002773
-0.011745
-0.013476
-0.010957
-0.005516
-0.000244
0.002358
0.002494
0.001500
-0.000012
-0.001298
-0.002153
-0.002735
-0.003268
-0.003822
-0.004374
-0.004905
-0.005436
-0.005998
-0.006578
-0.007155
-0.007726
-0.008299
-0.008894
-0.009519
-0.010168
-0.010825
-0.011462
-0.012098
-0.012749
-0.013370
-0.013145
-0.013282
-0.013593
-0.014902
-0.016063
-0.016966
-0.017785
-0.018513
-0.019079
-0.021296
0.030649
0.039572
0.047976
0.052824
0.054108
0.052241
0.043901
0.027296
0.006317
-0.011508
-0.020405
-0.020684
-0.016112
-0.010603
-0.006591
-0.002853
0.000362
0.000439
-0.000726
-0.002334
-0.004328
-0.005640
-0.006942
-0.007639
-0.008110
-0.008109
-0.007855
-0.007912
-0.008157
-0.009503
0.000000
0.000000
0.000000
0.000000
-0.029715
-0.027120
-0.025252
-0.022077
-0.018366
-0.013303
-0.006298
0.006326
0.025569
0.045396
0.065147
0.079712
0.084336
0.080568
0.070031
0.046367
0.012817
-0.017547
-0.034644
-0.036785
-0.028144
-0.025129
-0.021494
-0.024155
-0.015427
-0.007062
0.000179
0.003514
0.003482
0.002036
0.000101
-0.001450
-0.002391
-0.002947
-0.003421
-0.003934
-0.004476
-0.005011
-0.005529
-0.006050
-0.006574
-0.007088
-0.007587
-0.008075
-0.008578
-0.009118
-0.009696
-0.010302
-0.010902
-0.011488
-0.012033
-0.012599
-0.012635
-0.012954
-0.013264
-0.014309
-0.015386
-0.016426
-0.017312
-0.018273
-0.018993
-0.020239
0.034561
0.044573
0.053490
0.057958
0.058257
0.055096
0.044292
0.024778
0.001006
-0.018805
-0.028294
-0.027734
-0.020297
-0.009235
0.000081
0.004335
0.002102
-0.001387
-0.006024
-0.008357
-0.008887
-0.008418
-0.007823
-0.007686
-0.007198
-0.008296
-0.009431
-0.011171
-0.013025
-0.014765
-0.015270
-0.014294
-0.013725
-0.012693
-0.009277
-0.008332
-0.006846
-0.005277
-0.004407
-0.002988
-0.000828
0.001391
0.000000
0.000000
0.000000
0.000000
0.087144
0.080201
0.067441
0.040308
0.005034
-0.028104
-0.046467
-0.047413
-0.041450
-0.031256
-0.016473
-0.007715
-0.005864
-0.008273
-0.010370
-0.013133
0.004353
0.002637
0.000346
-0.001455
-0.002502
-0.003064
-0.003510
-0.003998
-0.004513
-0.005022
-0.005524
-0.006033
-0.006541
-0.007033
-0.007507
-0.007965
-0.008429
-0.008915
-0.009436
-0.009998
-0.010580
-0.011163
-0.011697
-0.012304
-0.012677
-0.013099
-0.013296
-0.013794
-0.014456
-0.015418
-0.016456
-0.017357
-0.018044
-0.019387
0.037678
0.048963
0.058647
0.062938
0.062782
0.058370
0.045453
0.023437
-0.002961
-0.024968
-0.035543
-0.034797
-0.025868
-0.012373
-0.000768
0.004813
0.005238
0.003479
0.000824
-0.001301
-0.011128
-0.008312
-0.008893
-0.009794
-0.011292
-0.012532
-0.013115
-0.013488
-0.013765
-0.014898
-0.015544
-0.015105
-0.014635
-0.014837
-0.015334
-0.015963
-0.016742
-0.016908
-0.015999
-0.011208
-0.003092
0.010289
0.026963
0.044404
0.058805
0.067047
0.067756
0.063646
0.051854
0.031728
-0.000821
-0.030043
-0.041438
-0.039337
0.000000
0.000000
0.000000
0.000000
0.001995
0.003309
0.000683
-0.000241
0.001134
0.001518
-0.001115
-0.003713
-0.002520
-0.003144
-0.003590
-0.004063
-0.004553
-0.005038
-0.005522
-0.006019
-0.006523
-0.007006
-0.007466
-0.007902
-0.008331
-0.008762
-0.009199
-0.009642
-0.010092
-0.010569
-0.011050
-0.011701
-0.012219
-0.012844
-0.013373
-0.013668
-0.014037
-0.014807
-0.015735
-0.016664
-0.017415
-0.018693
0.039920
0.052689
0.063415
0.067915
0.067504
0.062109
0.047570
0.023442
-0.005391
-0.029842
-0.042118
-0.041725
-0.032012
-0.016579
-0.002520
0.004976
0.006109
0.004432
0.001548
-0.000988
-0.002495
-0.003239
-0.003691
-0.004134
-0.016543
-0.015184
-0.015354
-0.015275
-0.015591
-0.016616
-0.017643
-0.017842
-0.016637
-0.015205
-0.014092
-0.013890
-0.012654
-0.011462
-0.010919
-0.007771
-0.001524
0.011912
0.030708
0.052484
0.075362
0.095708
0.105928
0.101162
0.085027
0.053505
0.011402
-0.030487
-0.057652
-0.060230
-0.060595
-0.049832
-0.028616
-0.011090
-0.003767
-0.003089
-0.006514
-0.007242
-0.006135
-0.003663
-0.003862
-0.005043
0.000000
0.000000
0.000000
0.000000
-0.004588
-0.005039
-0.005489
-0.005960
-0.006451
-0.006922
-0.007363
-0.007775
-0.008184
-0.008591
-0.008997
-0.009414
-0.009867
-0.010383
-0.010908
-0.011599
-0.012480
-0.013232
-0.013412
-0.013072
-0.013007
-0.013493
-0.014250
-0.015265
-0.015997
-0.018153
0.041197
0.055666
0.067709
0.072857
0.072387
0.066340
0.050656
0.024869
-0.006160
-0.033258
-0.047704
-0.048333
-0.038669
-0.021754
-0.005327
0.004446
0.006586
0.005350
0.002369
-0.000515
-0.002370
-0.003315
-0.003813
-0.004220
-0.004622
-0.005015
-0.005414
-0.005845
-0.018725
-0.018452
-0.019578
-0.019646
-0.020273
-0.017955
-0.015211
-0.014103
-0.012738
-0.011891
-0.010876
-0.009377
-0.001680
0.012259
0.030622
0.051439
0.072307
0.091673
0.106761
0.110113
0.095654
0.063076
0.018010
-0.028200
-0.060023
-0.066277
-0.067342
-0.059620
-0.038402
-0.018285
-0.007884
-0.005783
-0.007041
-0.007555
-0.006163
-0.003375
-0.003893
-0.004840
-0.005949
-0.006346
-0.006811
-0.007235
-0.006323
-0.005141
-0.004299
-0.004100
-0.006307
-0.006755
-0.007164
-0.007536
-0.007895
-0.008255
-0.008601
-0.008957
-0.009345
-0.009794
-0.010270
-0.010991
-0.011895
-0.012986
-0.013478
-0.013303
-0.013283
-0.013403
-0.013632
-0.014213
-0.014683
-0.017876
0.041406
0.057765
0.071525
0.077634
0.077324
0.071004
0.054642
0.027690
-0.005200
-0.034983
-0.052133
-0.054717
-0.045948
-0.028116
-0.009393
0.002984
0.006933
0.006158
0.003352
0.000213
-0.002025
-0.003240
-0.003865
-0.004291
-0.004679
-0.005051
-0.005423
-0.005823
-0.006263
-0.006700
-0.007110
-0.007491
-0.009711
-0.009758
-0.010693
-0.013063
0.000000
0.000000
0.000000
0.000000
-0.010235
0.003260
0.023005
0.045644
0.061947
0.078850
0.093481
0.103052
0.098439
0.068938
0.023126
-0.025867
-0.061681
-0.072853
-0.074258
-0.070351
-0.050103
-0.027523
-0.013661
-0.008948
-0.008184
-0.007338
-0.005555
-0.002885
-0.003848
-0.005267
-0.006502
-0.007190
-0.007793
-0.007956
-0.007027
-0.005683
-0.004799
-0.004723
-0.004790
-0.004867
-0.004763
-0.005989
-0.007859
-0.008211
-0.008549
-0.008897
-0.009266
-0.009666
-0.009986
-0.010388
-0.011351
-0.012354
-0.012979
-0.012999
-0.012876
-0.012898
-0.012927
-0.013290
-0.013530
-0.017062
0.040546
0.058852
0.074629
0.082167
0.082290
0.076214
0.059616
0.031966
-0.002599
-0.035087
-0.055690
-0.060467
-0.053176
-0.035637
-0.014986
0.000342
0.006717
0.006738
0.004368
0.001212
-0.001396
-0.002988
-0.003832
-0.004340
-0.004754
-0.005118
-0.005453
-0.005792
-0.006167
-0.006564
-0.006955
-0.007331
-0.007694
-0.008041
-0.008361
-0.008671
-0.027950
-0.026994
-0.025012
-0.020286
-0.012561
-0.002438
0.019372
0.042635
0.057405
0.065771
0.063710
0.061779
0.000000
0.000000
0.000000
0.000000
-0.049078
-0.072628
-0.068550
-0.070127
-0.055606
-0.031972
-0.014184
-0.007117
-0.005258
-0.003299
-0.001021
-0.000087
-0.003574
-0.005240
-0.006362
-0.007376
-0.008228
-0.008347
-0.007493
-0.006038
-0.004973
-0.004790
-0.004898
-0.005165
-0.005555
-0.005862
-0.005972
-0.005899
-0.005765
-0.005543
-0.008977
-0.009294
-0.009507
-0.009782
-0.010567
-0.011442
-0.012324
-0.012759
-0.012927
-0.012948
-0.012786
-0.012818
-0.012669
-0.015962
0.038626
0.058764
0.076807
0.086464
0.087476
0.081843
0.065523
0.037584
0.001815
-0.033233
-0.057532
-0.064476
-0.060264
-0.043691
-0.021973
-0.003833
0.005505
0.007003
0.005450
0.002464
-0.000452
-0.002469
-0.003643
-0.004333
-0.004833
-0.005232
-0.005553
-0.005835
-0.006132
-0.006463
-0.006805
-0.007145
-0.007483
-0.007819
-0.008144
-0.008467
-0.008776
-0.009108
-0.009324
-0.009481
-0.012691
-0.002654
0.017289
0.042330
0.063879
0.081014
0.093920
0.100939
0.101173
0.082936
0.038750
-0.015081
-0.059273
-0.075929
-0.067834
-0.058170
-0.043939
-0.028733
-0.013870
-0.010320
0.000000
0.000000
0.000000
0.000000
0.000198
-0.002897
-0.004701
-0.005991
-0.007155
-0.007487
-0.007802
-0.006750
-0.005856
-0.005676
-0.006313
-0.006672
-0.006662
-0.007033
-0.006744
-0.006109
-0.006040
-0.005392
-0.004947
-0.004858
-0.005503
-0.000678
-0.009998
-0.010460
-0.011254
-0.011896
-0.012314
-0.012423
-0.012495
-0.012760
-0.012383
-0.015377
0.035671
0.057398
0.077848
0.090172
0.092403
0.087766
0.072217
0.044525
0.007993
-0.029437
-0.057392
-0.069381
-0.066742
-0.052311
-0.030290
-0.009555
0.003146
0.006822
0.006226
0.003722
0.000762
-0.001615
-0.003189
-0.004175
-0.004840
-0.005300
-0.005610
-0.005836
-0.006075
-0.006367
-0.006682
-0.007002
-0.007316
-0.007628
-0.007924
-0.008223
-0.008503
-0.008817
-0.009063
-0.009206
-0.009547
-0.009928
-0.010490
-0.011099
0.062964
0.080266
0.096150
0.110456
0.115832
0.098178
0.055253
0.000693
-0.048675
-0.076804
-0.076124
-0.083272
-0.079939
-0.057764
-0.032754
-0.016071
-0.008330
-0.003395
0.001706
0.005062
0.001606
-0.001499
-0.002007
-0.000540
0.000603
-0.002352
-0.003511
-0.003273
0.000000
0.000000
0.000000
0.000000
-0.009687
-0.008312
-0.008053
-0.007926
-0.007875
-0.008835
-0.006920
-0.007096
-0.007851
-0.007173
-0.005705
-0.005709
-0.005725
0.002619
-0.011641
-0.011912
-0.011991
-0.012155
-0.012331
-0.015306
0.031833
0.054659
0.077497
0.092858
0.097244
0.093958
0.079671
0.052725
0.015887
-0.023521
-0.055372
-0.071434
-0.072044
-0.060614
-0.039567
-0.017075
-0.000914
0.005938
0.006461
0.004764
0.002079
-0.000451
-0.002405
-0.003785
-0.004735
-0.005334
-0.005662
-0.005841
-0.006012
-0.006253
-0.006532
-0.006831
-0.007127
-0.007423
-0.007695
-0.007963
-0.008180
-0.008448
-0.008715
-0.008912
-0.009239
-0.009573
-0.010096
-0.010478
-0.011012
-0.011426
-0.011739
-0.012036
0.118201
0.105502
0.066005
0.011114
-0.041097
-0.074776
-0.073749
-0.079296
-0.080593
-0.066240
-0.041510
-0.021062
-0.009791
-0.003057
0.002916
0.007141
0.005320
0.001813
-0.001304
-0.002316
-0.002336
-0.003714
-0.006906
-0.007786
-0.006750
-0.005536
-0.005043
-0.004902
-0.005025
-0.004869
-0.004651
-0.004852
-0.005033
-0.004814
-0.004743
-0.005591
0.000000
0.000000
0.000000
0.000000
-0.018815
-0.017347
-0.015079
-0.011632
-0.006084
0.008951
-0.011690
-0.014271
0.027235
0.050599
0.075626
0.094321
0.102210
0.100048
0.087682
0.062109
0.025450
-0.015560
-0.051015
-0.071870
-0.076059
-0.068423
-0.049579
-0.026265
-0.007048
0.003490
0.005848
0.005331
0.003304
0.000918
-0.001261
-0.003024
-0.004338
-0.005195
-0.005649
-0.005850
-0.005995
-0.006178
-0.006411
-0.006689
-0.006976
-0.007276
-0.007545
-0.007808
-0.008009
-0.008264
-0.008484
-0.008666
-0.008916
-0.009127
-0.009563
-0.009937
-0.010397
-0.010783
-0.011150
-0.011483
-0.011129
-0.013535
0.022170
0.045244
-0.004728
-0.065219
-0.072860
-0.076599
-0.081271
-0.077248
-0.053999
-0.032940
-0.016612
-0.007122
0.000374
0.006454
0.005742
0.000951
-0.004207
-0.007157
-0.009453
-0.010952
-0.010971
-0.009919
-0.008425
-0.007493
-0.007800
-0.007754
-0.007686
-0.007545
-0.007258
-0.007331
-0.007928
-0.009103
-0.009745
-0.009741
-0.009032
-0.008572
-0.008391
-0.008299
-0.008041
-0.008166
-0.008763
-0.005449
0.000335
0.016246
0.037730
0.054674
0.000000
0.000000
0.071917
0.094166
0.105533
0.105903
0.096015
0.072371
0.036593
-0.005411
-0.044201
-0.070205
-0.078389
-0.075084
-0.059417
-0.036708
-0.015207
-0.000887
0.004933
0.005448
0.004260
0.002281
0.000096
-0.001961
-0.003661
-0.004886
-0.005607
-0.005935
-0.006073
-0.006211
-0.006350
-0.006536
-0.006730
-0.006964
-0.007191
-0.007458
-0.007676
-0.007924
-0.008179
-0.008414
-0.008691
-0.008884
-0.009254
-0.009496
-0.009871
-0.010219
-0.010568
-0.010909
-0.010591
-0.012848
0.016956
0.038785
0.066426
0.092023
0.107985
0.111015
0.000000
0.000000
-0.063781
-0.035775
-0.018558
-0.009006
-0.003091
0.002589
0.005801
0.002147
-0.003818
-0.007773
-0.010607
-0.012408
-0.012970
-0.011885
-0.010202
-0.008578
-0.008326
-0.008627
-0.008412
-0.007834
-0.007231
-0.007162
-0.007403
-0.008111
-0.009108
-0.009191
-0.008892
-0.008775
-0.008732
-0.008852
-0.008668
-0.008525
-0.009381
-0.007821
-0.002047
0.014787
0.043117
0.072796
0.094359
0.101705
0.095104
0.080033
0.075233
0.056464
0.104259
0.083528
0.049199
0.006782
-0.034901
-0.066001
-0.080454
-0.080189
-0.068521
-0.047840
-0.025155
-0.007440
0.002137
0.004772
0.004577
0.003274
0.001453
-0.000560
-0.002493
-0.004118
-0.005253
-0.005884
-0.006174
-0.006328
-0.006449
-0.006580
-0.006705
-0.006870
-0.007016
-0.007206
-0.007368
-0.007566
-0.007784
-0.008004
-0.008284
-0.008486
-0.008832
-0.009064
-0.009395
-0.009648
-0.009940
-0.010268
-0.010023
-0.012176
0.011963
0.031583
0.059137
0.087577
0.108180
0.115652
0.112132
0.094946
0.062976
0.020956
-0.033761
0.014850
0.018748
0.019946
0.014636
0.003403
0.000000
0.000000
0.000000
0.000000
-0.013356
-0.012893
-0.011799
-0.009595
-0.007842
-0.007008
-0.006662
-0.006240
-0.005893
-0.006124
-0.006358
-0.006570
-0.006529
-0.006541
-0.006777
-0.006808
-0.006733
-0.006585
-0.006548
-0.006889
-0.008084
-0.007311
-0.004212
0.008471
0.033517
0.064997
0.093769
0.110767
0.112981
0.108173
0.094299
0.069456
0.023703
-0.018612
-0.037704
-0.052983
-0.022973
-0.058966
-0.079351
-0.083388
-0.076343
-0.058862
-0.036325
-0.016100
-0.002769
0.003186
0.004183
0.003680
0.002491
0.000858
-0.001031
-0.002924
-0.004497
-0.005543
-0.006069
-0.006274
-0.006373
-0.006450
-0.006518
-0.006652
-0.006786
-0.006981
-0.007160
-0.007367
-0.007583
-0.007777
-0.008017
-0.008173
-0.008451
-0.008606
-0.008862
-0.009102
-0.009355
-0.009659
-0.009474
-0.011512
0.007563
0.024098
0.050355
0.080705
0.106156
0.119071
0.118921
0.106111
0.077647
0.036974
-0.008381
-0.048731
-0.075227
-0.084318
-0.042380
-0.015910
-0.002644
0.011629
0.014639
0.013501
0.008648
0.003264
-0.004400
-0.009413
-0.009323
-0.007860
-0.006102
-0.005473
0.000000
0.000000
0.000000
0.000000
-0.005945
-0.005757
-0.006028
-0.006455
-0.006850
-0.007121
-0.007426
-0.007803
-0.009146
-0.009300
-0.007752
0.000635
0.021738
0.052559
0.084859
0.108715
0.118640
0.123211
0.123314
0.102386
0.051830
-0.006904
-0.053620
-0.078202
-0.075858
-0.065501
-0.054384
-0.047646
-0.082009
-0.068881
-0.048111
-0.026659
-0.010073
-0.000536
0.003126
0.003582
0.003111
0.002109
0.000555
-0.001378
-0.003331
-0.004896
-0.005856
-0.006264
-0.006379
-0.006443
-0.006436
-0.006487
-0.006546
-0.006691
-0.006851
-0.007056
-0.007282
-0.007467
-0.007688
-0.007822
-0.008060
-0.008175
-0.008381
-0.008579
-0.008798
-0.009080
-0.008918
-0.010697
0.004074
0.016903
0.040570
0.071440
0.100928
0.119957
0.124164
0.116554
0.092869
0.054627
0.008829
-0.035042
-0.067907
-0.083935
-0.085625
-0.077443
-0.059859
-0.038613
-0.009624
-0.024334
-0.022625
-0.019259
-0.013941
-0.007685
-0.002705
0.000044
0.002514
0.000816
-0.001230
-0.003242
-0.004716
-0.005439
-0.005658
-0.005483
-0.004561
-0.003967
-0.003947
-0.004177
-0.004419
-0.005046
0.000000
0.000000
0.000000
0.000000
0.011650
0.040506
0.074435
0.104213
0.120590
0.128017
0.133077
0.126517
0.083238
0.022665
-0.033938
-0.076925
-0.083972
-0.081368
-0.073145
-0.058885
-0.045540
-0.035411
-0.023575
-0.012538
-0.019628
-0.006509
0.000396
0.002875
0.003166
0.002846
0.001920
0.000318
-0.001675
-0.003598
-0.005057
-0.005907
-0.006247
-0.006394
-0.006438
-0.006478
-0.006494
-0.006576
-0.006671
-0.006803
-0.006981
-0.007129
-0.007322
-0.007437
-0.007645
-0.007747
-0.007922
-0.008088
-0.008260
-0.008501
-0.008345
-0.009868
0.001678
0.010579
0.030472
0.060161
0.092586
0.117626
0.128748
0.125611
0.107659
0.073369
0.028408
-0.018092
-0.056734
-0.080412
-0.086598
-0.083826
-0.070672
-0.051136
-0.030953
-0.014780
-0.004481
0.000680
-0.004874
-0.015273
-0.017739
-0.017544
-0.014021
-0.009470
-0.005416
-0.002117
0.001460
0.003643
0.003005
0.000084
-0.001818
-0.003912
-0.005647
-0.006707
-0.007117
-0.007346
-0.008487
-0.007385
-0.007159
-0.005839
0.005642
0.029113
0.061373
0.092037
0.109639
0.106780
0.090847
0.078981
0.000000
0.000000
0.000000
0.000000
-0.077537
-0.081286
-0.082365
-0.079970
-0.071321
-0.058436
-0.040860
-0.023113
-0.007341
0.003149
0.007123
0.002865
0.002575
0.002869
0.002581
0.001604
-0.000040
-0.001983
-0.003787
-0.005123
-0.005846
-0.006189
-0.006308
-0.006359
-0.006361
-0.006414
-0.006481
-0.006566
-0.006704
-0.006818
-0.006986
-0.007077
-0.007246
-0.007333
-0.007482
-0.007611
-0.007728
-0.007915
-0.007766
-0.009026
0.000388
0.005606
0.020895
0.047605
0.081075
0.111576
0.129296
0.132194
0.121100
0.092404
0.049862
0.001927
-0.041644
-0.072525
-0.086746
-0.087585
-0.079624
-0.063399
-0.043590
-0.025322
-0.011788
-0.003487
0.000730
0.002411
0.002693
0.002414
-0.004285
-0.004420
-0.005658
-0.006955
-0.007339
-0.006482
-0.005210
-0.004519
-0.003952
-0.002813
-0.002288
-0.002587
-0.003897
-0.005790
-0.008770
-0.012852
-0.016214
-0.015763
-0.003085
0.016342
0.046634
0.082792
0.113416
0.128337
0.133317
0.134730
0.127431
0.083187
0.023519
-0.039031
-0.078997
-0.084590
-0.079611
-0.065371
-0.042605
-0.021944
-0.011805
-0.014424
0.000000
0.000000
0.000000
0.000000
0.000428
-0.004390
-0.005078
-0.004507
0.001419
-0.000211
-0.002114
-0.003884
-0.005139
-0.005871
-0.006148
-0.006260
-0.006251
-0.006262
-0.006302
-0.006343
-0.006435
-0.006504
-0.006635
-0.006698
-0.006826
-0.006898
-0.007030
-0.007122
-0.007225
-0.007368
-0.007232
-0.008128
0.000000
0.002252
0.012651
0.034826
0.067022
0.101303
0.126739
0.136268
0.132071
0.110735
0.072533
0.024930
-0.022230
-0.059765
-0.081850
-0.087633
-0.085439
-0.074205
-0.056743
-0.037920
-0.021721
-0.010149
-0.003094
0.000632
0.002249
0.002589
0.002339
0.001366
-0.000200
-0.002070
-0.002686
-0.001231
-0.001933
-0.004480
-0.006834
-0.008103
-0.007813
-0.007014
-0.006824
-0.007548
-0.009430
-0.011380
-0.013502
-0.014134
-0.008524
0.008474
0.033179
0.067336
0.102018
0.125280
0.133035
0.138055
0.139540
0.117930
0.065532
0.000154
-0.054789
-0.080795
-0.080412
-0.077856
-0.075090
-0.072438
-0.066152
-0.051404
-0.032210
-0.013352
0.001479
0.010006
0.006103
-0.001094
-0.006394
-0.006035
-0.004170
-0.002193
-0.004242
-0.005740
-0.003727
-0.004951
-0.005634
-0.005939
-0.006055
-0.006086
-0.006129
-0.006149
-0.006204
-0.006219
-0.006306
-0.006342
-0.006430
-0.006479
-0.006574
-0.006651
-0.006715
-0.006796
-0.006722
-0.007182
0.000000
0.000504
0.006373
0.022985
0.051594
0.087081
0.119024
0.137116
0.139795
0.126929
0.095503
0.050614
0.001588
-0.041982
-0.072610
-0.086749
-0.088272
-0.082334
-0.068915
-0.051274
-0.033646
-0.019269
-0.009170
-0.002875
0.000628
0.002211
0.002526
0.002197
0.001221
-0.000343
-0.002033
-0.003559
-0.004635
-0.005290
0.000000
0.000000
0.000000
0.000000
-0.005578
-0.006472
-0.010428
-0.014885
-0.019432
-0.021934
-0.019207
-0.004773
0.019567
0.049962
0.086781
0.118155
0.133919
0.137731
0.140060
0.137065
0.099720
0.037703
-0.023640
-0.069414
-0.081009
-0.078378
-0.073772
-0.069653
-0.065575
-0.061206
-0.047223
-0.028670
-0.010771
0.002926
0.008446
0.002265
-0.004631
-0.007860
-0.009448
-0.008012
-0.005360
-0.005930
-0.007967
-0.008175
-0.007157
-0.006698
-0.005619
-0.005771
-0.005878
-0.005906
-0.005944
-0.005925
-0.005959
-0.005966
-0.006014
-0.006044
-0.006111
-0.006167
-0.006188
-0.006198
-0.006173
-0.006246
0.000000
0.000000
0.002351
0.013153
0.036258
0.069958
0.106131
0.133221
0.143430
0.139338
0.117310
0.078022
0.029254
-0.019063
-0.057673
-0.080749
-0.088551
-0.087314
-0.078885
-0.064252
-0.047104
-0.030954
-0.017966
-0.008720
-0.002740
0.000716
0.002284
0.002467
0.002154
0.001146
-0.000282
-0.001850
-0.003212
-0.004231
-0.004895
-0.005267
-0.005493
-0.005574
-0.006783
-0.005853
-0.006418
-0.005032
-0.004802
-0.006501
-0.006070
-0.005497
0.000000
0.000000
0.000000
0.000000
0.130472
0.137304
0.140677
0.143461
0.131132
0.079715
0.017977
-0.038297
-0.076456
-0.079379
-0.074448
-0.069558
-0.064001
-0.059487
-0.054853
-0.041238
-0.023723
-0.007203
0.004025
0.005918
-0.001384
-0.007123
-0.009869
-0.013009
-0.013981
-0.011357
-0.008924
-0.008864
-0.008838
-0.008152
-0.006531
-0.004867
-0.003754
-0.004526
-0.005622
-0.005588
-0.005592
-0.005574
-0.005592
-0.005600
-0.005632
-0.005651
-0.005634
-0.005573
-0.005489
-0.005579
0.000000
0.000000
0.000438
0.006066
0.022568
0.051659
0.088582
0.122761
0.143417
0.147274
0.135312
0.104414
0.058954
0.008731
-0.036112
-0.068265
-0.084941
-0.088477
-0.085142
-0.075419
-0.060800
-0.044517
-0.029499
-0.017396
-0.008618
-0.002819
0.000592
0.002109
0.002445
0.002066
0.001201
-0.000097
-0.001510
-0.002787
-0.003791
-0.004448
-0.004861
-0.005039
-0.005140
-0.005151
-0.005185
-0.005183
-0.013724
-0.014101
-0.014431
-0.014344
-0.006911
0.017036
0.048391
0.085462
0.118590
0.137606
0.137003
0.121417
0.097179
0.073855
0.042523
0.027694
0.000000
0.000000
0.000000
0.000000
-0.062788
-0.054745
-0.061962
-0.059572
-0.042835
-0.023949
-0.008769
0.000866
0.001472
-0.005251
-0.008926
-0.011192
-0.014032
-0.016520
-0.015762
-0.013157
-0.010620
-0.009469
-0.008484
-0.006818
-0.004903
-0.003511
-0.003659
-0.003725
-0.003507
-0.003981
-0.005182
-0.005159
-0.005138
-0.005103
-0.005046
-0.004946
-0.004819
-0.004880
0.000000
0.000000
0.000000
0.001913
0.011839
0.034214
0.068182
0.106030
0.136181
0.150506
0.148096
0.127270
0.088904
0.040451
-0.008493
-0.049036
-0.075436
-0.086636
-0.087651
-0.083324
-0.072976
-0.058591
-0.043057
-0.028797
-0.017196
-0.008663
-0.002914
0.000441
0.002001
0.002242
0.002025
0.001249
0.000067
-0.001214
-0.002408
-0.003312
-0.003944
-0.004278
-0.004483
-0.004586
-0.004682
-0.004716
-0.004715
-0.004666
-0.004606
-0.004535
-0.020132
-0.004141
0.026106
0.062779
0.100540
0.130676
0.142987
0.144686
0.147302
0.143269
0.103115
0.045040
-0.013314
-0.060088
-0.077909
-0.075483
-0.068818
-0.059247
-0.042029
-0.026111
-0.015674
-0.012163
-0.006181
-0.004231
0.000000
0.000000
0.000000
0.000000
-0.012418
-0.012444
-0.013679
-0.013927
-0.012797
-0.011632
-0.010706
-0.009312
-0.007620
-0.005361
-0.003953
-0.004101
-0.004105
-0.004186
-0.004327
-0.004337
-0.004411
-0.002084
-0.004453
-0.004333
-0.004174
-0.004200
0.000000
0.000000
0.000000
0.000212
0.004720
0.019557
0.047408
0.084632
0.121474
0.146753
0.153500
0.145084
0.117989
0.074899
0.024599
-0.022304
-0.058088
-0.079365
-0.087398
-0.087138
-0.081667
-0.071290
-0.057592
-0.042852
-0.029144
-0.017787
-0.009174
-0.003277
0.000330
0.001988
0.002260
0.002006
0.001284
0.000277
-0.000876
-0.001929
-0.002793
-0.003351
-0.003727
-0.003954
-0.004117
-0.004182
-0.004166
-0.004096
-0.004018
-0.003936
-0.003848
-0.003722
-0.003539
-0.003541
0.076316
0.113230
0.136108
0.144071
0.145870
0.148527
0.136622
0.090950
0.034434
-0.018374
-0.059843
-0.073347
-0.070255
-0.062852
-0.056067
-0.051865
-0.050138
-0.046553
-0.033428
-0.018865
-0.007629
-0.001395
-0.002865
-0.008794
-0.010934
-0.011659
-0.008953
-0.003848
-0.001714
-0.003691
-0.005094
-0.005297
0.000000
0.000000
0.000000
0.000000
-0.002859
-0.000458
0.000000
-0.000381
-0.001442
-0.001508
-0.002086
-0.003039
-0.003459
-0.000415
0.000000
0.000000
0.000000
0.000000
0.001092
0.008998
0.028851
0.061254
0.100130
0.134182
0.152958
0.155169
0.141150
0.107490
0.060800
0.011274
-0.032169
-0.063591
-0.081054
-0.086537
-0.086037
-0.080410
-0.070500
-0.057592
-0.043563
-0.030340
-0.019013
-0.010171
-0.003805
0.000140
0.001940
0.002254
0.002069
0.001519
0.000604
-0.000426
-0.001425
-0.002203
-0.002793
-0.003189
-0.003441
-0.003549
-0.003548
-0.003488
-0.003419
-0.003344
-0.003257
-0.003117
-0.002900
-0.002873
0.000000
0.000000
0.000000
0.000000
0.146004
0.143530
0.145742
0.125103
0.076707
0.021825
-0.027485
-0.065332
-0.072642
-0.068809
-0.060802
-0.055978
-0.051721
-0.047722
-0.043226
-0.031872
-0.019720
-0.010278
-0.004733
-0.004931
-0.010492
-0.011585
-0.013148
-0.014620
-0.015727
-0.015849
-0.014421
-0.011830
-0.009493
-0.006948
-0.004364
-0.002139
-0.001456
-0.001022
-0.000921
-0.000772
-0.001417
-0.001377
-0.002052
-0.002850
0.000000
0.000000
0.000000
0.000000
-0.000879
0.009094
0.000000
0.002832
0.014553
0.039098
0.074893
0.113664
0.143796
0.157847
0.155327
0.134714
0.097107
0.049538
0.001539
-0.038606
-0.066455
-0.081465
-0.085915
-0.085354
-0.080088
-0.070940
-0.058762
-0.045435
-0.032507
-0.021009
-0.011582
-0.004714
-0.000399
0.001771
0.002385
0.002365
0.001872
0.001129
0.000201
-0.000703
-0.001502
-0.002112
-0.002529
-0.002757
-0.002835
-0.002817
-0.002762
-0.002699
-0.002630
-0.002497
-0.002264
-0.002234
0.000000
0.000000
0.000000
0.000000
0.000000
0.000350
0.005426
0.021037
0.114845
0.050217
0.002393
-0.039731
-0.067651
-0.067949
-0.063189
-0.057553
-0.053071
-0.049559
-0.046020
-0.042264
-0.032430
-0.021956
-0.013653
-0.008332
-0.006747
-0.011533
-0.012334
-0.013478
-0.014380
-0.014728
-0.014694
-0.013214
-0.010553
-0.008291
-0.005970
-0.003465
-0.001131
-0.000307
0.000570
0.001308
0.000842
0.000982
0.000434
-0.000633
-0.001195
-0.001988
-0.002818
-0.003482
-0.003485
-0.000927
0.009417
0.028575
0.050646
0.068529
0.049615
0.087511
0.125128
0.150886
0.157843
0.152931
0.128796
0.088417
0.040866
-0.004723
-0.041607
-0.066795
-0.080531
-0.084954
-0.084685
-0.080261
-0.072112
-0.061128
-0.048583
-0.035699
-0.023876
-0.014066
-0.006563
-0.001352
0.001534
0.002599
0.002696
0.002450
0.001858
0.001055
0.000200
-0.000564
-0.001171
-0.001599
-0.001861
-0.001966
-0.001972
-0.001949
-0.001918
-0.001819
-0.001627
-0.001525
0.000000
0.000000
0.000000
0.000000
0.000000
0.000000
0.001090
0.008747
0.027989
0.059743
0.098596
0.133967
0.034627
0.012691
0.000000
0.000000
0.000000
0.000000
0.000000
0.000000
0.000000
0.000000
0.000000
0.000000
0.000000
0.000000
0.000000
0.000000
0.000000
0.000000
0.000000
0.000000
0.000000
0.000000
0.000000
0.000000
0.000000
0.000000
0.000000
0.000000
0.000000
0.000000
0.000000
0.000000
0.000000
0.000000
0.000000
0.000000
0.000000
0.000000
0.000000
0.000000
0.000000
0.000000
0.000000
0.000000
0.000000
0.000000
0.156013
0.161079
0.150394
0.122741
0.081433
0.035089
-0.007799
-0.041912
-0.065283
-0.078541
-0.083437
-0.083568
-0.080602
-0.074174
-0.064295
-0.052427
-0.040123
-0.028301
-0.017826
-0.009313
-0.003199
0.000610
0.002411
0.002894
0.002958
0.002636
0.002065
0.001376
0.000659
0.000016
-0.000453
-0.000721
-0.000863
-0.000962
-0.001028
-0.001016
-0.000920
-0.000820
0.000000
0.000000
0.000000
0.000000
0.000000
0.000000
0.000000
0.002265
0.012506
0.034903
0.068885
0.107738
0.140742
0.158410
0.160399
0.147892
0.000000
0.000000
0.000000
0.000000
0.000000
0.000000
0.000000
0.000000
0.000000
0.000000
0.000000
0.000000
0.000000
0.000000
0.000000
0.000000
0.000000
0.000000
0.000000
0.000000
0.000000
0.000000
0.000000
0.000000
0.000000
0.000000
0.000000
0.000000
0.000000
0.000000
0.000000
0.000000
0.000000
0.000000
0.000000
0.000000
0.000000
0.000000
0.000000
0.000000
0.000000
0.000000
0.000000
0.000000
0.000000
0.000000
0.118408
0.077393
0.032964
-0.007349
-0.039331
-0.061730
-0.075261
-0.081549
-0.082982
-0.081073
-0.075918
-0.067879
-0.057503
-0.045706
-0.033913
-0.023067
-0.013849
-0.006575
-0.001505
0.001531
0.002896
0.003230
0.003302
0.002992
0.002436
0.001820
0.001267
0.000853
0.000538
0.000263
0.000040
-0.000100
-0.000174
-0.000233
0.000000
0.000000
0.000000
0.000000
0.000000
0.000000
0.000000
0.000124
0.003733
0.016377
0.041264
0.076587
0.114746
0.145121
0.160055
0.159824
0.145174
0.115507
0.075986
0.034004
0.000000
0.000000
0.000000
0.000000
0.000000
0.000000
0.000000
0.000000
0.000000
0.000000
0.000000
0.000000
0.000000
0.000000
0.000000
0.000000
0.000000
0.000000
0.000000
0.000000
0.000000
0.000000
0.000000
0.000000
0.000000
0.000000
0.000000
0.000000
0.000000
0.000000
0.000000
0.000000
0.000000
0.000000
0.000000
0.000000
0.000000
0.000000
0.000000
0.000000
0.000000
0.000000
0.000000
0.000000
0.000000
0.000000
-0.003827
-0.034147
-0.056093
-0.070419
-0.078377
-0.081189
-0.080907
-0.077649
-0.071443
-0.062482
-0.052023
-0.041006
-0.030169
-0.020212
-0.011874
-0.005489
-0.001121
0.001531
0.002926
0.003422
0.003233
0.002990
0.002657
0.002270
0.001874
0.001455
0.001062
0.000725
0.000451
0.000134
0.000000
0.000000
0.000000
0.000000
0.000000
0.000000
0.000000
0.000000
0.000413
0.005354
0.019994
0.046647
0.082515
0.119519
0.147544
0.160358
0.158746
0.143210
0.114329
0.076931
0.037690
0.002266
-0.026516
-0.048232
0.000000
0.000000
0.000000
0.000000
0.000000
0.000000
0.000000
0.000000
0.000000
0.000000
0.000000
0.000000
0.000000
0.000000
0.000000
0.000000
0.000000
0.000000
0.000000
0.000000
0.000000
0.000000
0.000000
0.000000
0.000000
0.000000
0.000000
0.000000
0.000000
0.000000
0.000000
0.000000
0.000000
0.000000
0.000000
0.000000
0.000000
0.000000
0.000000
0.000000
0.000000
0.000000
0.000000
0.000000
0.000000
0.000000
-0.063622
-0.073700
-0.078812
-0.079869
-0.078100
-0.073751
-0.067208
-0.058652
-0.048773
-0.038379
-0.028384
-0.019476
-0.012090
-0.006328
-0.002183
0.000466
0.001920
0.002585
0.002818
0.002753
0.002428
0.002011
0.001585
0.001162
0.000747
0.000115
0.000000
0.000000
0.000000
0.000000
0.000000
0.000000
0.000000
0.000000
0.000000
0.000782
0.006923
0.023037
0.050713
0.086461
0.122108
0.148209
0.159045
0.157368
0.142166
0.114897
0.080005
0.043703
0.010928
-0.016388
-0.038107
-0.054769
-0.066600
-0.073817
0.000000
0.000000
0.000000
0.000000
0.000000
0.000000
0.000000
0.000000
0.000000
0.000000
0.000000
0.000000
0.000000
0.000000
0.000000
0.000000
0.000000
0.000000
0.000000
0.000000
0.000000
0.000000
0.000000
0.000000
0.000000
0.000000
0.000000
0.000000
0.000000
0.000000
0.000000
0.000000
0.000000
0.000000
0.000000
0.000000
0.000000
0.000000
0.000000
0.000000
0.000000
0.000000
0.000000
0.000000
0.000000
0.000000
-0.076704
-0.076619
-0.074676
-0.070415
-0.064059
-0.056047
-0.047007
-0.037694
-0.028791
-0.020773
-0.014057
-0.008810
-0.004939
-0.002263
-0.000500
0.000561
0.001055
0.001203
0.001099
0.000810
0.000372
-0.000361
0.000000
0.000000
0.000000
0.000000
0.000000
0.000000
0.000000
0.000000
0.000000
0.000000
0.001178
0.008214
0.025235
0.053218
0.088315
0.122558
0.147260
0.157043
0.155800
0.141847
0.116857
0.084975
0.052108
0.021848
-0.004268
-0.025970
-0.043315
-0.056552
-0.066070
-0.071884