# vtk DataFile Version 3.0
Created by write_to_vtk2d
ASCII
DATASET STRUCTURED_POINTS
DIMENSIONS 100 100 1
SPACING 1.000000 1.000000 0.0
ORIGIN 0.000000 0.000000 0.0
POINT_DATA 10000
SCALARS p float 1
LOOKUP_TABLE p_table
0.000000
0.000000
0.000000
0.000000
0.000000
0.000000
0.000000
0.000000
0.000000
0.000000
0.000000
0.000000
0.000000
0.000000
0.000000
0.000000
0.000000
0.000000
0.000000
0.000000
0.000000
0.000000
0.000000
0.000000
0.000000
0.000000
0.000000
0.000000
0.000000
0.000000
0.000000
0.000000
0.000000
0.000000
0.000000
0.000000
0.000000
0.000000
0.000000
0.000000
0.000000
0.000000
0.000000
0.000000
0.000000
0.000000
0.000000
0.000000
0.000013
0.000054
0.000067
0.000054
0.000013
0.000000
0.000000
0.000000
0.000000
0.000000
0.000000
0.000000
0.000000
0.000000
0.000000
0.000000
0.000000
0.000000
0.000000
0.000000
0.000000
0.000000
0.000000
0.000000
0.000000
0.000000
0.000000
0.000000
0.000000
0.000000
0.000000
0.000000
0.000000
0.000000
0.000000
0.000000
0.000000
0.000000
0.000000
0.000000
0.000000
0.000000
0.000000
0.000000
0.000000
0.000000
0.000000
0.000000
0.000000
0.000000
0.000000
0.000000
0.000000
0.000000
0.000000
0.000000
0.000000
0.000000
0.000000
0.000000
0.000000
0.000000
0.000000
0.000000
0.000000
0.000000
0.000000
0.000000
0.000000
0.000000
0.000000
0.000000
0.000000
0.000000
0.000000
0.000000
0.000000
0.000000
0.000000
0.000000
0.000000
0.000000
0.000000
0.000000
0.000000
0.000000
0.000000
0.000000
0.000000
0.000000
0.000000
0.000000
0.000000
0.000257
0.000669
0.001244
0.001944
0.002688
0.003408
0.004048
0.004549
0.004859
0.004980
0.004859
0.004549
0.004048
0.003408
0.002688
0.001944
0.001244
0.000669
0.000257
0.000000
0.000000
0.000000
0.000000
0.000000
0.000000
0.000000
0.000000
0.000000
0.000000
0.000000
0.000000
0.000000
0.000000
0.000000
0.000000
0.000000
0.000000
0.000000
0.000000
0.000000
0.000000
0.000000
0.000000
0.000000
0.000000
0.000000
0.000000
0.000000
0.000000
0.000000
0.000000
0.000000
0.000000
0.000000
0.000000
0.000000
0.000000
0.000000
0.000000
0.000000
0.000000
0.000000
0.000000
0.000000
0.000000
0.000000
0.000000
0.000000
0.000000
0.000000
0.000000
0.000000
0.000000
0.000000
0.000000
0.000000
0.000000
0.000000
0.000000
0.000000
0.000000
0.000000
0.000000
0.000000
0.000000
0.000000
0.000000
0.000000
0.000000
0.000000
0.000000
0.000000
0.000000
0.000000
0.000000
0.000000
0.000313
0.001059
0.002316
0.004048
0.006170
0.008585
0.011132
0.013692
0.016112
0.018262
0.020042
0.021381
0.022208
0.022521
0.022208
0.021381
0.020042
0.018262
0.016112
0.013692
0.011132
0.008585
0.006170
0.004048
0.002316
0.001059
0.000313
0.000000
0.000000
0.000000
0.000000
0.000000
0.000000
0.000000
0.000000
0.000000
0.000000
0.000000
0.000000
0.000000
0.000000
0.000000
0.000000
0.000000
0.000000
0.000000
0.000000
0.000000
0.000000
0.000000
0.000000
0.000000
0.000000
0.000000
0.000000
0.000000
0.000000
0.000000
0.000000
0.000000
0.000000
0.000000
0.000000
0.000000
0.000000
0.000000
0.000000
0.000000
0.000000
0.000000
0.000000
0.000000
0.000000
0.000000
0.000000
0.000000
0.000000
0.000000
0.000000
0.000000
0.000000
0.000000
0.000000
0.000000
0.000000
0.000000
0.000000
0.000000
0.000000
0.000000
0.000000
0.000000
0.000000
0.000000
0.000000
0.000000
0.000000
0.000371
0.001467
0.003461
0.006401
0.010236
0.014787
0.019867
0.025242
0.030682
0.035960
0.040894
0.045304
0.049065
0.052092
0.054300
0.055694
0.056169
0.055694
0.054300
0.052092
0.049065
0.045304
0.040894
0.035960
0.030682
0.025242
0.019867
0.014787
0.010236
0.006401
0.003461
0.001467
0.000371
0.000000
0.000000
0.000000
0.000000
0.000000
0.000000
0.000000
0.000000
0.000000
0.000000
0.000000
0.000000
0.000000
0.000000
0.000000
0.000000
0.000000
0.000000
0.000000
0.000000
0.000000
0.000000
0.000000
0.000000
0.000000
0.000000
0.000000
0.000000
0.000000
0.000000
0.000000
0.000000
0.000000
0.000000
0.000000
0.000000
0.000000
0.000000
0.000000
0.000000
0.000000
0.000000
0.000000
0.000000
0.000000
0.000000
0.000000
0.000000
0.000000
0.000000
0.000000
0.000000
0.000000
0.000000
0.000000
0.000000
0.000000
0.000000
0.000000
0.000000
0.000000
0.000000
0.000000
0.000000
0.000074
0.000969
0.003062
0.006609
0.011647
0.018069
0.025606
0.033950
0.042749
0.051636
0.060321
0.068523
0.076041
0.082733
0.088475
0.093215
0.096930
0.099595
0.101251
0.101777
0.101251
0.099595
0.096930
0.093215
0.088475
0.082733
0.076041
0.068523
0.060321
0.051636
0.042749
0.033950
0.025606
0.018069
0.011647
0.006609
0.003062
0.000969
0.000074
0.000000
0.000000
0.000000
0.000000
0.000000
0.000000
0.000000
0.000000
0.000000
0.000000
0.000000
0.000000
0.000000
0.000000
0.000000
0.000000
0.000000
0.000000
0.000000
0.000000
0.000000
0.000000
0.000000
0.000000
0.000000
0.000000
0.000000
0.000000
0.000000
0.000000
0.000000
0.000000
0.000000
0.000000
0.000000
0.000000
0.000000
0.000000
0.000000
0.000000
0.000000
0.000000
0.000000
0.000000
0.000000
0.000000
0.000000
0.000000
0.000000
0.000000
0.000000
0.000000
0.000000
0.000000
0.000000
0.000000
0.000000
0.000000
0.000000
0.000172
0.001465
0.004460
0.009538
0.016733
0.025858
0.036553
0.048339
0.060682
0.073076
0.085092
0.096385
0.106714
0.115915
0.123917
0.130705
0.136316
0.140808
0.144218
0.146645
0.148049
0.148500
0.148049
0.146645
0.144218
0.140808
0.136316
0.130705
0.123917
0.115915
0.106714
0.096385
0.085092
0.073076
0.060682
0.048339
0.036553
0.025858
0.016733
0.009538
0.004460
0.001465
0.000172
0.000000
0.000000
0.000000
0.000000
0.000000
0.000000
0.000000
0.000000
0.000000
0.000000
0.000000
0.000000
0.000000
0.000000
0.000000
0.000000
0.000000
0.000000
0.000000
0.000000
0.000000
0.000000
0.000000
0.000000
0.000000
0.000000
0.000000
0.000000
0.000000
0.000000
0.000000
0.000000
0.000000
0.000000
0.000000
0.000000
0.000000
0.000000
0.000000
0.000000
0.000000
0.000000
0.000000
0.000000
0.000000
0.000000
0.000000
0.000000
0.000000
0.000000
0.000000
0.000000
0.000000
0.000000
0.000000
0.000117
0.001513
0.005041
0.011285
0.020348
0.031995
0.045704
0.060776
0.076468
0.092071
0.106993
0.120778
0.133155
0.143944
0.153180
0.160877
0.167175
0.172201
0.176163
0.179196
0.181410
0.182913
0.183763
0.184047
0.183763
0.182913
0.181410
0.179196
0.176163
0.172201
0.167175
0.160877
0.153180
0.143944
0.133155
0.120778
0.106993
0.092071
0.076468
0.060776
0.045704
0.031995
0.020348
0.011285
0.005041
0.001513
0.000117
0.000000
0.000000
0.000000
0.000000
0.000000
0.000000
0.000000
0.000000
0.000000
0.000000
0.000000
0.000000
0.000000
0.000000
0.000000
0.000000
0.000000
0.000000
0.000000
0.000000
0.000000
0.000000
0.000000
0.000000
0.000000
0.000000
0.000000
0.000000
0.000000
0.000000
0.000000
0.000000
0.000000
0.000000
0.000000
0.000000
0.000000
0.000000
0.000000
0.000000
0.000000
0.000000
0.000000
0.000000
0.000000
0.000000
0.000000
0.000000
0.000000
0.000000
0.000000
0.000000
0.001070
0.004528
0.011287
0.021617
0.035279
0.051591
0.069622
0.088347
0.106784
0.124121
0.139775
0.153394
0.164877
0.174215
0.181643
0.187435
0.191734
0.194855
0.197235
0.198948
0.200088
0.200819
0.201221
0.201484
0.201573
0.201484
0.201221
0.200819
0.200088
0.198948
0.197235
0.194855
0.191734
0.187435
0.181643
0.174215
0.164877
0.153394
0.139775
0.124121
0.106784
0.088347
0.069622
0.051591
0.035279
0.021617
0.011287
0.004528
0.001070
0.000000
0.000000
0.000000
0.000000
0.000000
0.000000
0.000000
0.000000
0.000000
0.000000
0.000000
0.000000
0.000000
0.000000
0.000000
0.000000
0.000000
0.000000
0.000000
0.000000
0.000000
0.000000
0.000000
0.000000
0.000000
0.000000
0.000000
0.000000
0.000000
0.000000
0.000000
0.000000
0.000000
0.000000
0.000000
0.000000
0.000000
0.000000
0.000000
0.000000
0.000000
0.000000
0.000000
0.000000
0.000000
0.000000
0.000000
0.000000
0.000000
0.000458
0.003139
0.009472
0.020115
0.035003
0.053342
0.073913
0.095347
0.116336
0.135775
0.152897
0.167286
0.178792
0.187573
0.193994
0.198465
0.201175
0.202810
0.203988
0.204401
0.203992
0.203586
0.203798
0.203839
0.203749
0.203724
0.203714
0.203724
0.203749
0.203839
0.203798
0.203586
0.203992
0.204401
0.203988
0.202810
0.201175
0.198465
0.193994
0.187573
0.178792
0.167286
0.152897
0.135775
0.116336
0.095347
0.073913
0.053342
0.035003
0.020115
0.009472
0.003139
0.000458
0.000000
0.000000
0.000000
0.000000
0.000000
0.000000
0.000000
0.000000
0.000000
0.000000
0.000000
0.000000
0.000000
0.000000
0.000000
0.000000
0.000000
0.000000
0.000000
0.000000
0.000000
0.000000
0.000000
0.000000
0.000000
0.000000
0.000000
0.000000
0.000000
0.000000
0.000000
0.000000
0.000000
0.000000
0.000000
0.000000
0.000000
0.000000
0.000000
0.000000
0.000000
0.000000
0.000000
0.000000
0.000000
0.000000
0.001469
0.006379
0.016136
0.031079
0.050548
0.073117
0.097002
0.120450
0.141981
0.160539
0.175586
0.187052
0.194983
0.200282
0.202982
0.204622
0.203912
0.204106
0.203523
0.202762
0.202014
0.201097
0.200356
0.199796
0.199324
0.199031
0.198823
0.198749
0.198823
0.199031
0.199324
0.199796
0.200356
0.201097
0.202014
0.202762
0.203523
0.204106
0.203912
0.204622
0.202982
0.200282
0.194983
0.187052
0.175586
0.160539
0.141981
0.120450
0.097002
0.073117
0.050548
0.031079
0.016136
0.006379
0.001469
0.000000
0.000000
0.000000
0.000000
0.000000
0.000000
0.000000
0.000000
0.000000
0.000000
0.000000
0.000000
0.000000
0.000000
0.000000
0.000000
0.000000
0.000000
0.000000
0.000000
0.000000
0.000000
0.000000
0.000000
0.000000
0.000000
0.000000
0.000000
0.000000
0.000000
0.000000
0.000000
0.000000
0.000000
0.000000
0.000000
0.000000
0.000000
0.000000
0.000000
0.000000
0.000000
0.000000
0.000298
0.003086
0.010595
0.024053
0.043359
0.067096
0.093090
0.119012
0.142876
0.163246
0.179335
0.191041
0.198648
0.202586
0.204454
0.204277
0.203758
0.202431
0.200640
0.198638
0.196626
0.194599
0.193016
0.191517
0.190347
0.189448
0.188725
0.188247
0.187931
0.187830
0.187931
0.188247
0.188725
0.189448
0.190347
0.191517
0.193016
0.194599
0.196626
0.198638
0.200640
0.202431
0.203758
0.204277
0.204454
0.202586
0.198648
0.191041
0.179335
0.163246
0.142876
0.119012
0.093090
0.067096
0.043359
0.024053
0.010595
0.003086
0.000298
0.000000
0.000000
0.000000
0.000000
0.000000
0.000000
0.000000
0.000000
0.000000
0.000000
0.000000
0.000000
0.000000
0.000000
0.000000
0.000000
0.000000
0.000000
0.000000
0.000000
0.000000
0.000000
0.000000
0.000000
0.000000
0.000000
0.000000
0.000000
0.000000
0.000000
0.000000
0.000000
0.000000
0.000000
0.000000
0.000000
0.000000
0.000000
0.000000
0.000000
0.000771
0.005122
0.015437
0.032658
0.056070
0.083451
0.111863
0.138511
0.161325
0.179185
0.191816
0.199668
0.203553
0.203747
0.203734
0.202230
0.199709
0.196687
0.193361
0.190038
0.187027
0.184186
0.181817
0.179730
0.178026
0.176574
0.175289
0.174236
0.173501
0.173051
0.172896
0.173051
0.173501
0.174236
0.175289
0.176574
0.178026
0.179730
0.181817
0.184186
0.187027
0.190038
0.193361
0.196687
0.199709
0.202230
0.203734
0.203747
0.203553
0.199668
0.191816
0.179185
0.161325
0.138511
0.111863
0.083451
0.056070
0.032658
0.015437
0.005122
0.000771
0.000000
0.000000
0.000000
0.000000
0.000000
0.000000
0.000000
0.000000
0.000000
0.000000
0.000000
0.000000
0.000000
0.000000
0.000000
0.000000
0.000000
0.000000
0.000000
0.000000
0.000000
0.000000
0.000000
0.000000
0.000000
0.000000
0.000000
0.000000
0.000000
0.000000
0.000000
0.000000
0.000000
0.000000
0.000000
0.000000
0.000000
0.000000
0.001384
0.007382
0.020422
0.041234
0.068353
0.098660
0.128468
0.154666
0.175354
0.189923
0.198828
0.203140
0.203713
0.203082
0.200670
0.197396
0.193289
0.188884
0.184410
0.180320
0.176591
0.173346
0.170498
0.167978
0.165630
0.163513
0.161546
0.159706
0.158174
0.157029
0.156310
0.156057
0.156310
0.157029
0.158174
0.159706
0.161546
0.163513
0.165630
0.167978
0.170498
0.173346
0.176591
0.180320
0.184410
0.188884
0.193289
0.197396
0.200670
0.203082
0.203713
0.203140
0.198828
0.189923
0.175354
0.154666
0.128468
0.098660
0.068353
0.041234
0.020422
0.007382
0.001384
0.000000
0.000000
0.000000
0.000000
0.000000
0.000000
0.000000
0.000000
0.000000
0.000000
0.000000
0.000000
0.000000
0.000000
0.000000
0.000000
0.000000
0.000000
0.000000
0.000000
0.000000
0.000000
0.000000
0.000000
0.000000
0.000000
0.000000
0.000000
0.000000
0.000000
0.000000
0.000000
0.000000
0.000000
0.000000
0.000017
0.002015
0.009508
0.025097
0.049148
0.079457
0.111977
0.142330
0.167208
0.185091
0.196071
0.201676
0.202926
0.202481
0.199870
0.195986
0.191169
0.185970
0.180835
0.175970
0.171511
0.167568
0.164095
0.160969
0.158074
0.155171
0.152250
0.149351
0.146587
0.144073
0.141990
0.140400
0.139401
0.139056
0.139401
0.140400
0.141990
0.144073
0.146587
0.149351
0.152250
0.155171
0.158074
0.160969
0.164095
0.167568
0.171511
0.175970
0.180835
0.185970
0.191169
0.195986
0.199870
0.202481
0.202926
0.201676
0.196071
0.185091
0.167208
0.142330
0.111977
0.079457
0.049148
0.025097
0.009508
0.002015
0.000017
0.000000
0.000000
0.000000
0.000000
0.000000
0.000000
0.000000
0.000000
0.000000
0.000000
0.000000
0.000000
0.000000
0.000000
0.000000
0.000000
0.000000
0.000000
0.000000
0.000000
0.000000
0.000000
0.000000
0.000000
0.000000
0.000000
0.000000
0.000000
0.000000
0.000000
0.000000
0.000000
0.000071
0.002516
0.011265
0.029020
0.055857
0.088821
0.122981
0.153294
0.176390
0.191216
0.198889
0.201002
0.201845
0.199791
0.195983
0.190963
0.185347
0.179556
0.174068
0.169074
0.164652
0.160720
0.157158
0.153787
0.150422
0.146898
0.143163
0.139337
0.135596
0.132153
0.129186
0.126818
0.125066
0.124003
0.123649
0.124003
0.125066
0.126818
0.129186
0.132153
0.135596
0.139337
0.143163
0.146898
0.150422
0.153787
0.157158
0.160720
0.164652
0.169074
0.174068
0.179556
0.185347
0.190963
0.195983
0.199791
0.201845
0.201002
0.198889
0.191216
0.176390
0.153294
0.122981
0.088821
0.055857
0.029020
0.011265
0.002516
0.000071
0.000000
0.000000
0.000000
0.000000
0.000000
0.000000
0.000000
0.000000
0.000000
0.000000
0.000000
0.000000
0.000000
0.000000
0.000000
0.000000
0.000000
0.000000
0.000000
0.000000
0.000000
0.000000
0.000000
0.000000
0.000000
0.000000
0.000000
0.000000
0.000000
0.000000
0.000094
0.002796
0.012415
0.031832
0.060926
0.096078
0.131487
0.161493
0.182680
0.194753
0.199894
0.200747
0.199827
0.196913
0.192305
0.186638
0.180535
0.174667
0.169174
0.164200
0.159728
0.155700
0.151957
0.148230
0.144277
0.139976
0.135356
0.130637
0.126096
0.121993
0.118508
0.115726
0.113638
0.112175
0.111330
0.111057
0.111330
0.112175
0.113638
0.115726
0.118508
0.121993
0.126096
0.130637
0.135356
0.139976
0.144277
0.148230
0.151957
0.155700
0.159728
0.164200
0.169174
0.174667
0.180535
0.186638
0.192305
0.196913
0.199827
0.200747
0.199894
0.194753
0.182680
0.161493
0.131487
0.096078
0.060926
0.031832
0.012415
0.002796
0.000094
0.000000
0.000000
0.000000
0.000000
0.000000
0.000000
0.000000
0.000000
0.000000
0.000000
0.000000
0.000000
0.000000
0.000000
0.000000
0.000000
0.000000
0.000000
0.000000
0.000000
0.000000
0.000000
0.000000
0.000000
0.000000
0.000000
0.000000
0.000000
0.000083
0.002797
0.012816
0.033294
0.064062
0.100996
0.137478
0.167223
0.186801
0.196518
0.198986
0.199645
0.197918
0.194390
0.189247
0.183414
0.177251
0.171214
0.165659
0.160662
0.156086
0.151728
0.147447
0.143038
0.138263
0.133035
0.127461
0.121873
0.116664
0.112153
0.108509
0.105739
0.103737
0.102366
0.101482
0.101005
0.100856
0.101005
0.101482
0.102366
0.103737
0.105739
0.108509
0.112153
0.116664
0.121873
0.127461
0.133035
0.138263
0.143038
0.147447
0.151728
0.156086
0.160662
0.165659
0.171214
0.177251
0.183414
0.189247
0.194390
0.197918
0.199645
0.198986
0.196518
0.186801
0.167223
0.137478
0.100996
0.064062
0.033294
0.012816
0.002797
0.000083
0.000000
0.000000
0.000000
0.000000
0.000000
0.000000
0.000000
0.000000
0.000000
0.000000
0.000000
0.000000
0.000000
0.000000
0.000000
0.000000
0.000000
0.000000
0.000000
0.000000
0.000000
0.000000
0.000000
0.000000
0.000000
0.000000
0.000041
0.002515
0.012411
0.033280
0.065107
0.103456
0.141012
0.170807
0.189230
0.197122
0.198929
0.198386
0.196083
0.192434
0.187251
0.181201
0.174984
0.168899
0.163076
0.157606
0.152531
0.147638
0.142634
0.137285
0.131418
0.125024
0.118374
0.111880
0.106052
0.101222
0.097487
0.094778
0.092889
0.091600
0.090748
0.090213
0.089920
0.089827
0.089920
0.090213
0.090748
0.091600
0.092889
0.094778
0.097487
0.101222
0.106052
0.111880
0.118374
0.125024
0.131418
0.137285
0.142634
0.147638
0.152531
0.157606
0.163076
0.168899
0.174984
0.181201
0.187251
0.192434
0.196083
0.198386
0.198929
0.197122
0.189230
0.170807
0.141012
0.103456
0.065107
0.033280
0.012411
0.002515
0.000041
0.000000
0.000000
0.000000
0.000000
0.000000
0.000000
0.000000
0.000000
0.000000
0.000000
0.000000
0.000000
0.000000
0.000000
0.000000
0.000000
0.000000
0.000000
0.000000
0.000000
0.000000
0.000000
0.000000
0.000000
0.000000
0.002017
0.011251
0.031789
0.064006
0.103419
0.142158
0.172520
0.190508
0.197464
0.198269
0.197195
0.194872
0.191034
0.186146
0.180040
0.173485
0.166926
0.160674
0.154623
0.148663
0.142801
0.136821
0.130420
0.123394
0.115761
0.107901
0.100393
0.093786
0.088426
0.084335
0.081254
0.078883
0.076961
0.075354
0.074047
0.073085
0.072490
0.072291
0.072490
0.073085
0.074047
0.075354
0.076961
0.078883
0.081254
0.084335
0.088426
0.093786
0.100393
0.107901
0.115761
0.123394
0.130420
0.136821
0.142801
0.148663
0.154623
0.160674
0.166926
0.173485
0.180040
0.186146
0.191034
0.194872
0.197195
0.198269
0.197464
0.190508
0.172520
0.142158
0.103419
0.064006
0.031789
0.011251
0.002017
0.000000
0.000000
0.000000
0.000000
0.000000
0.000000
0.000000
0.000000
0.000000
0.000000
0.000000
0.000000
0.000000
0.000000
0.000000
0.000000
0.000000
0.000000
0.000000
0.000000
0.000000
0.000000
0.000000
0.000000
0.001395
0.009492
0.028951
0.060810
0.100883
0.140945
0.172503
0.190917
0.197527
0.198019
0.196525
0.193806
0.190238
0.185519
0.179571
0.172510
0.165231
0.158016
0.151134
0.144355
0.137426
0.130266
0.122666
0.114444
0.105607
0.096549
0.087924
0.080316
0.073984
0.068823
0.064488
0.060552
0.056737
0.053000
0.049484
0.046428
0.044096
0.042649
0.042158
0.042649
0.044096
0.046428
0.049484
0.053000
0.056737
0.060552
0.064488
0.068823
0.073984
0.080316
0.087924
0.096549
0.105607
0.114444
0.122666
0.130266
0.137426
0.144355
0.151134
0.158016
0.165231
0.172510
0.179571
0.185519
0.190238
0.193806
0.196525
0.198019
0.197527
0.190917
0.172503
0.140945
0.100883
0.060810
0.028951
0.009492
0.001395
0.000000
0.000000
0.000000
0.000000
0.000000
0.000000
0.000000
0.000000
0.000000
0.000000
0.000000
0.000000
0.000000
0.000000
0.000000
0.000000
0.000000
0.000000
0.000000
0.000000
0.000000
0.000000
0.000788
0.007348
0.025017
0.055698
0.095898
0.137343
0.170757
0.190549
0.197516
0.197916
0.196123
0.193336
0.189811
0.185275
0.179238
0.171851
0.163605
0.155369
0.147333
0.139562
0.131755
0.123588
0.114858
0.105412
0.095356
0.085054
0.075169
0.066251
0.058450
0.051436
0.044705
0.037840
0.030685
0.023354
0.016191
0.009633
0.004094
-0.000056
-0.002605
-0.003435
-0.002605
-0.000056
0.004094
0.009633
0.016191
0.023354
0.030685
0.037840
0.044705
0.051436
0.058450
0.066251
0.075169
0.085054
0.095356
0.105412
0.114858
0.123588
0.131755
0.139562
0.147333
0.155369
0.163605
0.171851
0.179238
0.185275
0.189811
0.193336
0.196123
0.197916
0.197516
0.190549
0.170757
0.137343
0.095898
0.055698
0.025017
0.007348
0.000788
0.000000
0.000000
0.000000
0.000000
0.000000
0.000000
0.000000
0.000000
0.000000
0.000000
0.000000
0.000000
0.000000
0.000000
0.000000
0.000000
0.000000
0.000000
0.000000
0.000000
0.000313
0.005122
0.020339
0.048970
0.088587
0.131287
0.167129
0.189285
0.197462
0.198082
0.196146
0.193176
0.189700
0.185234
0.179116
0.171199
0.162126
0.152761
0.143690
0.134938
0.126240
0.117254
0.107633
0.097172
0.085906
0.074262
0.062824
0.052109
0.042150
0.032490
0.022439
0.011563
-0.000083
-0.012037
-0.023671
-0.034356
-0.043589
-0.051046
-0.056491
-0.059799
-0.060868
-0.059799
-0.056491
-0.051046
-0.043589
-0.034356
-0.023671
-0.012037
-0.000083
0.011563
0.022439
0.032490
0.042150
0.052109
0.062824
0.074262
0.085906
0.097172
0.107633
0.117254
0.126240
0.134938
0.143690
0.152761
0.162126
0.171199
0.179116
0.185234
0.189700
0.193176
0.196146
0.198082
0.197462
0.189285
0.167129
0.131287
0.088587
0.048970
0.020339
0.005122
0.000313
0.000000
0.000000
0.000000
0.000000
0.000000
0.000000
0.000000
0.000000
0.000000
0.000000
0.000000
0.000000
0.000000
0.000000
0.000000
0.000000
0.000000
0.000000
0.000061
0.003078
0.015352
0.041049
0.079176
0.122714
0.161352
0.186813
0.197263
0.198508
0.196602
0.193372
0.189711
0.185261
0.179081
0.170769
0.160911
0.150524
0.140482
0.130900
0.121542
0.111821
0.101420
0.090042
0.077670
0.064605
0.051362
0.038325
0.025472
0.012297
-0.001826
-0.017229
-0.033644
-0.050249
-0.066063
-0.080264
-0.092367
-0.102159
-0.109636
-0.114934
-0.118058
-0.119239
-0.118058
-0.114934
-0.109636
-0.102159
-0.092367
-0.080264
-0.066063
-0.050249
-0.033644
-0.017229
-0.001826
0.012297
0.025472
0.038325
0.051362
0.064605
0.077670
0.090042
0.101420
0.111821
0.121542
0.130900
0.140482
0.150524
0.160911
0.170769
0.179081
0.185261
0.189711
0.193372
0.196602
0.198508
0.197263
0.186813
0.161352
0.122714
0.079176
0.041049
0.015352
0.003078
0.000061
0.000000
0.000000
0.000000
0.000000
0.000000
0.000000
0.000000
0.000000
0.000000
0.000000
0.000000
0.000000
0.000000
0.000000
0.000000
0.000000
0.000000
0.001476
0.010547
0.032472
0.068049
0.111647
0.153083
0.182671
0.196602
0.199000
0.197504
0.193969
0.189882
0.185259
0.179092
0.170619
0.160221
0.149034
0.138060
0.127789
0.117823
0.107662
0.096548
0.084273
0.070711
0.056087
0.040805
0.025087
0.008818
-0.008443
-0.027111
-0.047114
-0.067747
-0.087893
-0.106341
-0.122175
-0.135054
-0.144960
-0.152306
-0.157700
-0.161246
-0.163234
-0.163910
-0.163234
-0.161246
-0.157700
-0.152306
-0.144960
-0.135054
-0.122175
-0.106341
-0.087893
-0.067747
-0.047114
-0.027111
-0.008443
0.008818
0.025087
0.040805
0.056087
0.070711
0.084273
0.096548
0.107662
0.117823
0.127789
0.138060
0.149034
0.160221
0.170619
0.179092
0.185259
0.189882
0.193969
0.197504
0.199000
0.196602
0.182671
0.153083
0.111647
0.068049
0.032472
0.010547
0.001476
0.000000
0.000000
0.000000
0.000000
0.000000
0.000000
0.000000
0.000000
0.000000
0.000000
0.000000
0.000000
0.000000
0.000000
0.000000
0.000000
0.000461
0.006335
0.023910
0.055773
0.098277
0.142030
0.176305
0.194893
0.199416
0.198593
0.194954
0.190335
0.185302
0.179128
0.170781
0.160213
0.148476
0.136806
0.125784
0.115328
0.104650
0.093087
0.079929
0.065138
0.048792
0.031169
0.012489
-0.007445
-0.028920
-0.051987
-0.076055
-0.099832
-0.121762
-0.140532
-0.155351
-0.166325
-0.173689
-0.178759
-0.181733
-0.183203
-0.184330
-0.184940
-0.185106
-0.184940
-0.184330
-0.183203
-0.181733
-0.178759
-0.173689
-0.166325
-0.155351
-0.140532
-0.121762
-0.099832
-0.076055
-0.051987
-0.028920
-0.007445
0.012489
0.031169
0.048792
0.065138
0.079929
0.093087
0.104650
0.115328
0.125784
0.136806
0.148476
0.160213
0.170781
0.179128
0.185302
0.190335
0.194954
0.198593
0.199416
0.194893
0.176305
0.142030
0.098277
0.055773
0.023910
0.006335
0.000461
0.000000
0.000000
0.000000
0.000000
0.000000
0.000000
0.000000
0.000000
0.000000
0.000000
0.000000
0.000000
0.000000
0.000000
0.000051
0.003133
0.016003
0.043075
0.083057
0.128093
0.167028
0.191372
0.199876
0.199843
0.196399
0.191140
0.185494
0.179204
0.171178
0.160884
0.148977
0.136750
0.125097
0.114016
0.102906
0.090775
0.076950
0.060949
0.042860
0.022832
0.000954
-0.022711
-0.048243
-0.075171
-0.102241
-0.127576
-0.149328
-0.166170
-0.177532
-0.184450
-0.187747
-0.188639
-0.187379
-0.187618
-0.186624
-0.185782
-0.185394
-0.185235
-0.185394
-0.185782
-0.186624
-0.187618
-0.187379
-0.188639
-0.187747
-0.184450
-0.177532
-0.166170
-0.149328
-0.127576
-0.102241
-0.075171
-0.048243
-0.022711
0.000954
0.022832
0.042860
0.060949
0.076950
0.090775
0.102906
0.114016
0.125097
0.136750
0.148977
0.160884
0.171178
0.179204
0.185494
0.191140
0.196399
0.199843
0.199876
0.191372
0.167028
0.128093
0.083057
0.043075
0.016003
0.003133
0.000051
0.000000
0.000000
0.000000
0.000000
0.000000
0.000000
0.000000
0.000000
0.000000
0.000000
0.000000
0.000000
0.000000
0.001077
0.009408
0.030851
0.066695
0.111430
0.154386
0.185054
0.199156
0.201128
0.198193
0.192539
0.186058
0.179404
0.171720
0.162063
0.150467
0.137973
0.125689
0.113964
0.102268
0.089666
0.075151
0.058151
0.038444
0.016098
-0.008772
-0.036113
-0.065355
-0.095447
-0.124423
-0.149857
-0.169658
-0.182738
-0.189156
-0.190611
-0.190391
-0.188072
-0.184799
-0.181180
-0.177827
-0.174840
-0.172434
-0.171121
-0.170665
-0.171121
-0.172434
-0.174840
-0.177827
-0.181180
-0.184799
-0.188072
-0.190391
-0.190611
-0.189156
-0.182738
-0.169658
-0.149857
-0.124423
-0.095447
-0.065355
-0.036113
-0.008772
0.016098
0.038444
0.058151
0.075151
0.089666
0.102268
0.113964
0.125689
0.137973
0.150467
0.162063
0.171720
0.179404
0.186058
0.192539
0.198193
0.201128
0.199156
0.185054
0.154386
0.111430
0.066695
0.030851
0.009408
0.001077
0.000000
0.000000
0.000000
0.000000
0.000000
0.000000
0.000000
0.000000
0.000000
0.000000
0.000000
0.000000
0.000145
0.004501
0.019966
0.050213
0.092629
0.138129
0.175244
0.196256
0.201813
0.200329
0.194755
0.187433
0.180025
0.172415
0.163492
0.152632
0.140306
0.127581
0.115141
0.102789
0.089620
0.074576
0.056761
0.035716
0.011367
-0.016256
-0.046765
-0.079344
-0.111947
-0.141857
-0.166011
-0.182453
-0.191483
-0.192031
-0.191215
-0.186697
-0.180291
-0.172948
-0.165960
-0.159457
-0.154286
-0.149874
-0.146822
-0.145036
-0.144427
-0.145036
-0.146822
-0.149874
-0.154286
-0.159457
-0.165960
-0.172948
-0.180291
-0.186697
-0.191215
-0.192031
-0.191483
-0.182453
-0.166011
-0.141857
-0.111947
-0.079344
-0.046765
-0.016256
0.011367
0.035716
0.056761
0.074576
0.089620
0.102789
0.115141
0.127581
0.140306
0.152632
0.163492
0.172415
0.180025
0.187433
0.194755
0.200329
0.201813
0.196256
0.175244
0.138129
0.092629
0.050213
0.019966
0.004501
0.000145
0.000000
0.000000
0.000000
0.000000
0.000000
0.000000
0.000000
0.000000
0.000000
0.000000
0.000000
0.001482
0.011179
0.034724
0.072684
0.118561
0.161087
0.190014
0.201390
0.202076
0.197298
0.189524
0.181296
0.173435
0.165113
0.155212
0.143487
0.130647
0.117575
0.104475
0.090710
0.075169
0.056814
0.034872
0.008940
-0.020916
-0.054262
-0.089575
-0.124269
-0.154586
-0.177079
-0.190432
-0.193164
-0.192860
-0.186810
-0.177756
-0.166989
-0.156125
-0.146057
-0.137576
-0.130721
-0.125305
-0.121147
-0.118307
-0.116561
-0.115954
-0.116561
-0.118307
-0.121147
-0.125305
-0.130721
-0.137576
-0.146057
-0.156125
-0.166989
-0.177756
-0.186810
-0.192860
-0.193164
-0.190432
-0.177079
-0.154586
-0.124269
-0.089575
-0.054262
-0.020916
0.008940
0.034872
0.056814
0.075169
0.090710
0.104475
0.117575
0.130647
0.143487
0.155212
0.165113
0.173435
0.181296
0.189524
0.197298
0.202076
0.201390
0.190014
0.161087
0.118561
0.072684
0.034724
0.011179
0.001482
0.000000
0.000000
0.000000
0.000000
0.000000
0.000000
0.000000
0.000000
0.000000
0.000000
0.000184
0.004991
0.021413
0.052946
0.096512
0.142486
0.179141
0.199113
0.202996
0.200089
0.192435
0.183314
0.174790
0.166778
0.157920
0.147191
0.134682
0.121206
0.107364
0.092930
0.076975
0.058304
0.035915
0.009086
-0.022453
-0.058043
-0.095873
-0.132386
-0.163156
-0.184081
-0.193948
-0.195659
-0.189916
-0.179218
-0.165353
-0.151251
-0.138108
-0.126747
-0.117402
-0.110104
-0.104624
-0.100406
-0.097335
-0.095228
-0.093924
-0.093483
-0.093924
-0.095228
-0.097335
-0.100406
-0.104624
-0.110104
-0.117402
-0.126747
-0.138108
-0.151251
-0.165353
-0.179218
-0.189916
-0.195659
-0.193948
-0.184081
-0.163156
-0.132386
-0.095873
-0.058043
-0.022453
0.009086
0.035915
0.058304
0.076975
0.092930
0.107364
0.121206
0.134682
0.147191
0.157920
0.166778
0.174790
0.183314
0.192435
0.200089
0.202996
0.199113
0.179141
0.142486
0.096512
0.052946
0.021413
0.004991
0.000184
0.000000
0.000000
0.000000
0.000000
0.000000
0.000000
0.000000
0.000000
0.000000
0.001436
0.011170
0.034978
0.073443
0.119963
0.162972
0.191996
0.203300
0.202759
0.196200
0.186639
0.177005
0.168533
0.160384
0.150937
0.139360
0.125978
0.111562
0.096398
0.079958
0.061161
0.038755
0.011682
-0.020684
-0.057963
-0.097921
-0.136426
-0.167995
-0.188145
-0.195656
-0.194317
-0.185494
-0.170972
-0.153269
-0.136217
-0.122031
-0.110753
-0.102008
-0.095218
-0.090276
-0.086675
-0.084050
-0.082063
-0.080731
-0.079966
-0.079751
-0.079966
-0.080731
-0.082063
-0.084050
-0.086675
-0.090276
-0.095218
-0.102008
-0.110753
-0.122031
-0.136217
-0.153269
-0.170972
-0.185494
-0.194317
-0.195656
-0.188145
-0.167995
-0.136426
-0.097921
-0.057963
-0.020684
0.011682
0.038755
0.061161
0.079958
0.096398
0.111562
0.125978
0.139360
0.150937
0.160384
0.168533
0.177005
0.186639
0.196200
0.202759
0.203300
0.191996
0.162972
0.119963
0.073443
0.034978
0.011170
0.001436
0.000000
0.000000
0.000000
0.000000
0.000000
0.000000
0.000000
0.000000
0.000100
0.004412
0.020159
0.051206
0.094850
0.141561
0.179256
0.199989
0.204052
0.200221
0.191117
0.180543
0.171039
0.162807
0.154345
0.144078
0.131469
0.116988
0.101244
0.084255
0.065320
0.043221
0.016533
-0.015851
-0.053971
-0.095747
-0.136394
-0.169592
-0.189902
-0.195696
-0.193517
-0.181325
-0.162772
-0.142458
-0.124150
-0.109515
-0.098975
-0.091467
-0.086026
-0.081818
-0.078886
-0.076756
-0.075251
-0.073987
-0.073158
-0.072713
-0.072627
-0.072713
-0.073158
-0.073987
-0.075251
-0.076756
-0.078886
-0.081818
-0.086026
-0.091467
-0.098975
-0.109515
-0.124150
-0.142458
-0.162772
-0.181325
-0.193517
-0.195696
-0.189902
-0.169592
-0.136394
-0.095747
-0.053971
-0.015851
0.016533
0.043221
0.065320
0.084255
0.101244
0.116988
0.131469
0.144078
0.154345
0.162807
0.171039
0.180543
0.191117
0.200221
0.204052
0.199989
0.179256
0.141561
0.094850
0.051206
0.020159
0.004412
0.000100
0.000000
0.000000
0.000000
0.000000
0.000000
0.000000
0.000000
0.000955
0.009432
0.031719
0.069172
0.115849
0.160248
0.191132
0.203605
0.203298
0.196187
0.185397
0.174578
0.165520
0.157492
0.148512
0.137180
0.123288
0.107384
0.089939
0.070808
0.049111
0.023305
-0.008291
-0.046391
-0.089376
-0.132366
-0.168052
-0.189915
-0.196274
-0.192581
-0.178074
-0.156916
-0.134506
-0.115020
-0.100644
-0.091199
-0.085071
-0.080687
-0.077465
-0.074804
-0.072942
-0.071510
-0.070492
-0.069593
-0.069014
-0.068644
-0.068560
-0.068644
-0.069014
-0.069593
-0.070492
-0.071510
-0.072942
-0.074804
-0.077465
-0.080687
-0.085071